/*--------------------------------*- C++ -*----------------------------------*\
| =========                 |                                                 |
| \\      /  F ield         | OpenFOAM: The Open Source CFD Toolbox           |
|  \\    /   O peration     | Version:  5.x                                   |
|   \\  /    A nd           | Web:      www.OpenFOAM.org                      |
|    \\/     M anipulation  |                                                 |
\*---------------------------------------------------------------------------*/
FoamFile
{
    version     2.0;
    format      ascii;
    class       volVectorField;
    location    "0.5";
    object      B;
}
// * * * * * * * * * * * * * * * * * * * * * * * * * * * * * * * * * * * * * //

dimensions      [1 0 -2 0 0 -1 0];

internalField   nonuniform List<vector> 
4000
(
(0.47361 20.0331 0)
(0.499874 19.9978 0)
(0.486543 19.9918 0)
(0.492204 19.9923 0)
(0.491915 19.9938 0)
(0.493185 19.9955 0)
(0.493234 19.9968 0)
(0.493486 19.9978 0)
(0.493518 19.9985 0)
(0.493577 19.999 0)
(0.493587 19.9993 0)
(0.493594 19.9996 0)
(0.493587 19.9997 0)
(0.493577 19.9998 0)
(0.493565 19.9999 0)
(0.493552 19.9999 0)
(0.493541 20 0)
(0.493532 20 0)
(0.493525 20 0)
(0.493519 20 0)
(0.493515 20 0)
(0.493512 20 0)
(0.49351 20 0)
(0.493509 20 0)
(0.493508 20 0)
(0.493507 20 0)
(0.493507 20 0)
(0.493506 20 0)
(0.493506 20 0)
(0.493506 20 0)
(0.493506 20 0)
(0.493506 20 0)
(0.493506 20 0)
(0.493506 20 0)
(0.493506 20 0)
(0.493506 20 0)
(0.493506 20 0)
(0.493506 20 0)
(0.493506 20 0)
(0.493506 20 0)
(0.493506 20 0)
(0.493506 20 0)
(0.493506 20 0)
(0.493506 20 0)
(0.493506 20 0)
(0.493506 20 0)
(0.493506 20 0)
(0.493506 20 0)
(0.493506 20 0)
(0.493506 20 0)
(0.493506 20 0)
(0.493506 20 0)
(0.493506 20 0)
(0.493506 20 0)
(0.493506 20 0)
(0.493506 20 0)
(0.493506 20 0)
(0.493506 20 0)
(0.493506 20 0)
(0.493506 20 0)
(0.493506 20 0)
(0.493506 20 0)
(0.493506 20 0)
(0.493506 20 0)
(0.493506 20 0)
(0.493506 20 0)
(0.493506 20 0)
(0.493506 20 0)
(0.493506 20 0)
(0.493506 20 0)
(0.493506 20 0)
(0.493506 20 0)
(0.493506 20 0)
(0.493506 20 0)
(0.493506 20 0)
(0.493506 20 0)
(0.493506 20 0)
(0.493506 20 0)
(0.493506 20 0)
(0.493506 20 0)
(0.493506 20 0)
(0.493506 20 0)
(0.493506 20 0)
(0.493506 20 0)
(0.493506 20 0)
(0.493506 20 0)
(0.493505 20 0)
(0.493505 20 0)
(0.493505 20 0)
(0.493505 20 0)
(0.493505 20 0)
(0.493506 20 0)
(0.493508 20 0)
(0.493513 20 0)
(0.493524 20 0)
(0.493544 20 0)
(0.493586 20 0)
(0.493591 20.0001 0)
(0.493547 20.0004 0)
(0.492784 20.0007 0)
(0.720678 20.0089 0)
(0.770421 19.9816 0)
(0.769055 19.9754 0)
(0.779962 19.9779 0)
(0.781274 19.9826 0)
(0.784034 19.9876 0)
(0.784921 19.9915 0)
(0.785906 19.9944 0)
(0.786458 19.9965 0)
(0.786931 19.998 0)
(0.787244 19.9991 0)
(0.787476 19.9998 0)
(0.787629 20.0003 0)
(0.787732 20.0006 0)
(0.787796 20.0009 0)
(0.787836 20.001 0)
(0.787858 20.0011 0)
(0.78787 20.0011 0)
(0.787877 20.0011 0)
(0.787879 20.0011 0)
(0.78788 20.0012 0)
(0.78788 20.0012 0)
(0.78788 20.0012 0)
(0.787879 20.0012 0)
(0.787879 20.0012 0)
(0.787879 20.0012 0)
(0.787878 20.0012 0)
(0.787878 20.0012 0)
(0.787878 20.0012 0)
(0.787878 20.0012 0)
(0.787878 20.0012 0)
(0.787878 20.0012 0)
(0.787878 20.0012 0)
(0.787878 20.0012 0)
(0.787878 20.0012 0)
(0.787878 20.0012 0)
(0.787878 20.0012 0)
(0.787878 20.0012 0)
(0.787878 20.0012 0)
(0.787878 20.0012 0)
(0.787878 20.0012 0)
(0.787878 20.0012 0)
(0.787878 20.0012 0)
(0.787878 20.0012 0)
(0.787878 20.0012 0)
(0.787878 20.0012 0)
(0.787878 20.0012 0)
(0.787878 20.0012 0)
(0.787878 20.0012 0)
(0.787878 20.0012 0)
(0.787878 20.0012 0)
(0.787878 20.0012 0)
(0.787878 20.0012 0)
(0.787878 20.0012 0)
(0.787878 20.0012 0)
(0.787878 20.0012 0)
(0.787878 20.0012 0)
(0.787878 20.0012 0)
(0.787878 20.0012 0)
(0.787878 20.0012 0)
(0.787878 20.0012 0)
(0.787878 20.0012 0)
(0.787878 20.0012 0)
(0.787878 20.0012 0)
(0.787878 20.0012 0)
(0.787878 20.0012 0)
(0.787878 20.0012 0)
(0.787878 20.0012 0)
(0.787878 20.0012 0)
(0.787878 20.0012 0)
(0.787878 20.0012 0)
(0.787878 20.0012 0)
(0.787878 20.0012 0)
(0.787878 20.0012 0)
(0.787878 20.0012 0)
(0.787878 20.0012 0)
(0.787878 20.0012 0)
(0.787878 20.0012 0)
(0.787878 20.0012 0)
(0.787878 20.0012 0)
(0.787878 20.0012 0)
(0.787878 20.0012 0)
(0.787878 20.0012 0)
(0.787878 20.0012 0)
(0.787878 20.0012 0)
(0.787878 20.0012 0)
(0.787878 20.0012 0)
(0.787879 20.0012 0)
(0.78788 20.0012 0)
(0.787882 20.0012 0)
(0.787886 20.0011 0)
(0.787894 20.0011 0)
(0.787908 20.0011 0)
(0.787932 20.0011 0)
(0.787976 20.0011 0)
(0.788049 20.0011 0)
(0.788178 20.0012 0)
(0.788322 20.0015 0)
(0.788444 20.0023 0)
(0.78739 20.0033 0)
(0.755199 19.9459 0)
(0.808175 19.954 0)
(0.821525 19.9558 0)
(0.836178 19.9619 0)
(0.83961 19.9702 0)
(0.843547 19.9785 0)
(0.845369 19.9849 0)
(0.847087 19.9897 0)
(0.848226 19.9932 0)
(0.849159 19.9958 0)
(0.849824 19.9975 0)
(0.850322 19.9988 0)
(0.850672 19.9996 0)
(0.850916 20.0002 0)
(0.851081 20.0005 0)
(0.85119 20.0008 0)
(0.85126 20.0009 0)
(0.851304 20.001 0)
(0.851331 20.001 0)
(0.851347 20.0011 0)
(0.851357 20.0011 0)
(0.851362 20.0011 0)
(0.851366 20.0011 0)
(0.851368 20.0011 0)
(0.851369 20.0011 0)
(0.851369 20.0011 0)
(0.851369 20.0011 0)
(0.851369 20.0011 0)
(0.85137 20.0011 0)
(0.85137 20.0011 0)
(0.85137 20.0011 0)
(0.85137 20.0011 0)
(0.85137 20.0011 0)
(0.85137 20.0011 0)
(0.85137 20.0011 0)
(0.85137 20.0011 0)
(0.85137 20.0011 0)
(0.85137 20.0011 0)
(0.85137 20.0011 0)
(0.85137 20.0011 0)
(0.85137 20.0011 0)
(0.85137 20.0011 0)
(0.85137 20.0011 0)
(0.85137 20.0011 0)
(0.85137 20.0011 0)
(0.85137 20.0011 0)
(0.85137 20.0011 0)
(0.85137 20.0011 0)
(0.85137 20.0011 0)
(0.85137 20.0011 0)
(0.85137 20.0011 0)
(0.85137 20.0011 0)
(0.85137 20.0011 0)
(0.85137 20.0011 0)
(0.85137 20.0011 0)
(0.85137 20.0011 0)
(0.85137 20.0011 0)
(0.85137 20.0011 0)
(0.85137 20.0011 0)
(0.85137 20.0011 0)
(0.85137 20.0011 0)
(0.85137 20.0011 0)
(0.85137 20.0011 0)
(0.85137 20.0011 0)
(0.85137 20.0011 0)
(0.85137 20.0011 0)
(0.85137 20.0011 0)
(0.85137 20.0011 0)
(0.85137 20.0011 0)
(0.85137 20.0011 0)
(0.85137 20.0011 0)
(0.85137 20.0011 0)
(0.85137 20.0011 0)
(0.85137 20.0011 0)
(0.85137 20.0011 0)
(0.85137 20.0011 0)
(0.85137 20.0011 0)
(0.85137 20.0011 0)
(0.85137 20.0011 0)
(0.85137 20.0011 0)
(0.85137 20.0011 0)
(0.85137 20.0011 0)
(0.85137 20.0011 0)
(0.85137 20.0011 0)
(0.85137 20.0011 0)
(0.851371 20.0011 0)
(0.851371 20.0011 0)
(0.851373 20.0011 0)
(0.851376 20.0011 0)
(0.851381 20.0011 0)
(0.85139 20.0011 0)
(0.851406 20.001 0)
(0.851433 20.001 0)
(0.85148 20.001 0)
(0.851559 20.0009 0)
(0.851693 20.0009 0)
(0.851928 20.001 0)
(0.852285 20.0015 0)
(0.852765 20.0027 0)
(0.852447 20.0044 0)
(0.726912 19.8841 0)
(0.774965 19.921 0)
(0.798454 19.9341 0)
(0.81593 19.9454 0)
(0.821447 19.9578 0)
(0.826402 19.9691 0)
(0.829086 19.978 0)
(0.831457 19.9847 0)
(0.833136 19.9896 0)
(0.834489 19.9932 0)
(0.835483 19.9957 0)
(0.83623 19.9974 0)
(0.836764 19.9986 0)
(0.837144 19.9994 0)
(0.837406 19.9999 0)
(0.837583 20.0003 0)
(0.837699 20.0005 0)
(0.837775 20.0006 0)
(0.837823 20.0007 0)
(0.837854 20.0007 0)
(0.837872 20.0007 0)
(0.837884 20.0007 0)
(0.837891 20.0007 0)
(0.837895 20.0007 0)
(0.837898 20.0007 0)
(0.837899 20.0007 0)
(0.8379 20.0007 0)
(0.837901 20.0007 0)
(0.837901 20.0007 0)
(0.837901 20.0007 0)
(0.837901 20.0007 0)
(0.837901 20.0007 0)
(0.837902 20.0007 0)
(0.837902 20.0007 0)
(0.837902 20.0007 0)
(0.837902 20.0007 0)
(0.837902 20.0007 0)
(0.837902 20.0007 0)
(0.837902 20.0007 0)
(0.837902 20.0007 0)
(0.837902 20.0007 0)
(0.837902 20.0007 0)
(0.837902 20.0007 0)
(0.837902 20.0007 0)
(0.837902 20.0007 0)
(0.837902 20.0007 0)
(0.837902 20.0007 0)
(0.837902 20.0007 0)
(0.837902 20.0007 0)
(0.837902 20.0007 0)
(0.837902 20.0007 0)
(0.837902 20.0007 0)
(0.837902 20.0007 0)
(0.837902 20.0007 0)
(0.837902 20.0007 0)
(0.837902 20.0007 0)
(0.837902 20.0007 0)
(0.837902 20.0007 0)
(0.837902 20.0007 0)
(0.837902 20.0007 0)
(0.837902 20.0007 0)
(0.837902 20.0007 0)
(0.837902 20.0007 0)
(0.837902 20.0007 0)
(0.837902 20.0007 0)
(0.837902 20.0007 0)
(0.837902 20.0007 0)
(0.837902 20.0007 0)
(0.837902 20.0007 0)
(0.837902 20.0007 0)
(0.837902 20.0007 0)
(0.837902 20.0007 0)
(0.837902 20.0007 0)
(0.837902 20.0007 0)
(0.837902 20.0007 0)
(0.837902 20.0007 0)
(0.837902 20.0007 0)
(0.837902 20.0007 0)
(0.837902 20.0007 0)
(0.837902 20.0007 0)
(0.837902 20.0007 0)
(0.837902 20.0007 0)
(0.837902 20.0007 0)
(0.837902 20.0007 0)
(0.837903 20.0007 0)
(0.837903 20.0007 0)
(0.837905 20.0007 0)
(0.837908 20.0007 0)
(0.837912 20.0007 0)
(0.83792 20.0007 0)
(0.837934 20.0007 0)
(0.837958 20.0007 0)
(0.837998 20.0006 0)
(0.838067 20.0006 0)
(0.838183 20.0005 0)
(0.838384 20.0005 0)
(0.838737 20.0006 0)
(0.839347 20.0011 0)
(0.840284 20.0026 0)
(0.841142 20.0045 0)
(0.681478 19.8323 0)
(0.722371 19.8868 0)
(0.751562 19.9116 0)
(0.770989 19.9289 0)
(0.778325 19.9456 0)
(0.784143 19.96 0)
(0.787568 19.9714 0)
(0.790487 19.9799 0)
(0.792622 19.9862 0)
(0.794331 19.9908 0)
(0.795605 19.994 0)
(0.796564 19.9963 0)
(0.797258 19.9978 0)
(0.797755 19.9988 0)
(0.798101 19.9995 0)
(0.798337 20 0)
(0.798495 20.0002 0)
(0.798599 20.0004 0)
(0.798666 20.0005 0)
(0.798709 20.0005 0)
(0.798736 20.0006 0)
(0.798753 20.0006 0)
(0.798763 20.0006 0)
(0.79877 20.0006 0)
(0.798774 20.0006 0)
(0.798776 20.0006 0)
(0.798778 20.0006 0)
(0.798779 20.0006 0)
(0.798779 20.0006 0)
(0.79878 20.0006 0)
(0.79878 20.0006 0)
(0.79878 20.0006 0)
(0.79878 20.0006 0)
(0.79878 20.0006 0)
(0.79878 20.0006 0)
(0.79878 20.0006 0)
(0.79878 20.0006 0)
(0.79878 20.0006 0)
(0.79878 20.0006 0)
(0.79878 20.0006 0)
(0.79878 20.0006 0)
(0.79878 20.0006 0)
(0.79878 20.0006 0)
(0.79878 20.0006 0)
(0.79878 20.0006 0)
(0.79878 20.0006 0)
(0.79878 20.0006 0)
(0.79878 20.0006 0)
(0.79878 20.0006 0)
(0.79878 20.0006 0)
(0.79878 20.0006 0)
(0.79878 20.0006 0)
(0.79878 20.0006 0)
(0.79878 20.0006 0)
(0.79878 20.0006 0)
(0.79878 20.0006 0)
(0.79878 20.0006 0)
(0.79878 20.0006 0)
(0.79878 20.0006 0)
(0.79878 20.0006 0)
(0.79878 20.0006 0)
(0.79878 20.0006 0)
(0.79878 20.0006 0)
(0.79878 20.0006 0)
(0.79878 20.0006 0)
(0.79878 20.0006 0)
(0.79878 20.0006 0)
(0.79878 20.0006 0)
(0.79878 20.0006 0)
(0.79878 20.0006 0)
(0.79878 20.0006 0)
(0.79878 20.0006 0)
(0.79878 20.0006 0)
(0.79878 20.0006 0)
(0.79878 20.0006 0)
(0.79878 20.0006 0)
(0.79878 20.0006 0)
(0.79878 20.0006 0)
(0.79878 20.0006 0)
(0.79878 20.0006 0)
(0.798781 20.0006 0)
(0.798781 20.0006 0)
(0.798781 20.0006 0)
(0.798781 20.0006 0)
(0.798782 20.0006 0)
(0.798783 20.0006 0)
(0.798785 20.0006 0)
(0.798789 20.0006 0)
(0.798795 20.0006 0)
(0.798805 20.0006 0)
(0.798823 20.0006 0)
(0.798854 20.0005 0)
(0.798907 20.0005 0)
(0.798997 20.0004 0)
(0.79915 20.0003 0)
(0.799419 20.0003 0)
(0.799896 20.0003 0)
(0.800769 20.0008 0)
(0.802182 20.0023 0)
(0.804197 20.0042 0)
(0.632588 19.7891 0)
(0.666427 19.8534 0)
(0.698097 19.8888 0)
(0.718649 19.9127 0)
(0.727432 19.9338 0)
(0.733944 19.9513 0)
(0.73797 19.965 0)
(0.741324 19.9753 0)
(0.743824 19.9829 0)
(0.745818 19.9885 0)
(0.747316 19.9924 0)
(0.748446 19.9952 0)
(0.74927 19.9971 0)
(0.749861 19.9984 0)
(0.750275 19.9992 0)
(0.75056 19.9997 0)
(0.750752 20.0001 0)
(0.750879 20.0003 0)
(0.750962 20.0004 0)
(0.751016 20.0005 0)
(0.75105 20.0005 0)
(0.751072 20.0005 0)
(0.751086 20.0005 0)
(0.751094 20.0005 0)
(0.751099 20.0005 0)
(0.751102 20.0006 0)
(0.751105 20.0006 0)
(0.751106 20.0006 0)
(0.751107 20.0006 0)
(0.751107 20.0006 0)
(0.751107 20.0006 0)
(0.751108 20.0006 0)
(0.751108 20.0006 0)
(0.751108 20.0006 0)
(0.751108 20.0006 0)
(0.751108 20.0006 0)
(0.751108 20.0006 0)
(0.751108 20.0006 0)
(0.751108 20.0006 0)
(0.751108 20.0006 0)
(0.751108 20.0006 0)
(0.751108 20.0006 0)
(0.751108 20.0006 0)
(0.751108 20.0006 0)
(0.751108 20.0006 0)
(0.751108 20.0006 0)
(0.751108 20.0006 0)
(0.751108 20.0006 0)
(0.751108 20.0006 0)
(0.751108 20.0006 0)
(0.751108 20.0006 0)
(0.751108 20.0006 0)
(0.751108 20.0006 0)
(0.751108 20.0006 0)
(0.751108 20.0006 0)
(0.751108 20.0006 0)
(0.751108 20.0006 0)
(0.751108 20.0006 0)
(0.751108 20.0006 0)
(0.751108 20.0006 0)
(0.751108 20.0006 0)
(0.751108 20.0006 0)
(0.751108 20.0006 0)
(0.751108 20.0006 0)
(0.751108 20.0006 0)
(0.751108 20.0006 0)
(0.751108 20.0006 0)
(0.751108 20.0006 0)
(0.751108 20.0006 0)
(0.751108 20.0006 0)
(0.751108 20.0006 0)
(0.751108 20.0006 0)
(0.751108 20.0006 0)
(0.751108 20.0006 0)
(0.751108 20.0006 0)
(0.751108 20.0006 0)
(0.751108 20.0006 0)
(0.751108 20.0006 0)
(0.751108 20.0006 0)
(0.751108 20.0006 0)
(0.751108 20.0006 0)
(0.751108 20.0006 0)
(0.751109 20.0006 0)
(0.751109 20.0006 0)
(0.75111 20.0006 0)
(0.751111 20.0005 0)
(0.751114 20.0005 0)
(0.751118 20.0005 0)
(0.751126 20.0005 0)
(0.751138 20.0005 0)
(0.75116 20.0005 0)
(0.751198 20.0005 0)
(0.751261 20.0004 0)
(0.75137 20.0003 0)
(0.751558 20.0002 0)
(0.751893 20.0001 0)
(0.752492 20.0001 0)
(0.753619 20.0005 0)
(0.755468 20.0018 0)
(0.758433 20.0035 0)
(0.584096 19.7526 0)
(0.611751 19.8217 0)
(0.643732 19.8663 0)
(0.664673 19.8968 0)
(0.674499 19.9223 0)
(0.681517 19.9428 0)
(0.686 19.9587 0)
(0.689677 19.9708 0)
(0.692449 19.9797 0)
(0.694654 19.9862 0)
(0.696321 19.9908 0)
(0.69758 19.9941 0)
(0.698501 19.9964 0)
(0.699165 19.9979 0)
(0.699631 19.9989 0)
(0.699954 19.9995 0)
(0.700173 19.9999 0)
(0.700319 20.0002 0)
(0.700415 20.0003 0)
(0.700477 20.0004 0)
(0.700517 20.0005 0)
(0.700542 20.0005 0)
(0.700558 20.0005 0)
(0.700568 20.0005 0)
(0.700575 20.0005 0)
(0.700579 20.0005 0)
(0.700581 20.0005 0)
(0.700583 20.0005 0)
(0.700584 20.0005 0)
(0.700584 20.0005 0)
(0.700585 20.0005 0)
(0.700585 20.0005 0)
(0.700585 20.0005 0)
(0.700585 20.0005 0)
(0.700585 20.0005 0)
(0.700585 20.0005 0)
(0.700585 20.0005 0)
(0.700585 20.0005 0)
(0.700585 20.0005 0)
(0.700585 20.0005 0)
(0.700585 20.0005 0)
(0.700585 20.0005 0)
(0.700585 20.0005 0)
(0.700585 20.0005 0)
(0.700585 20.0005 0)
(0.700585 20.0005 0)
(0.700585 20.0005 0)
(0.700585 20.0005 0)
(0.700585 20.0005 0)
(0.700585 20.0005 0)
(0.700585 20.0005 0)
(0.700585 20.0005 0)
(0.700585 20.0005 0)
(0.700585 20.0005 0)
(0.700585 20.0005 0)
(0.700585 20.0005 0)
(0.700585 20.0005 0)
(0.700585 20.0005 0)
(0.700585 20.0005 0)
(0.700585 20.0005 0)
(0.700585 20.0005 0)
(0.700585 20.0005 0)
(0.700585 20.0005 0)
(0.700585 20.0005 0)
(0.700585 20.0005 0)
(0.700585 20.0005 0)
(0.700585 20.0005 0)
(0.700585 20.0005 0)
(0.700585 20.0005 0)
(0.700585 20.0005 0)
(0.700585 20.0005 0)
(0.700585 20.0005 0)
(0.700585 20.0005 0)
(0.700585 20.0005 0)
(0.700585 20.0005 0)
(0.700585 20.0005 0)
(0.700585 20.0005 0)
(0.700585 20.0005 0)
(0.700585 20.0005 0)
(0.700586 20.0005 0)
(0.700586 20.0005 0)
(0.700586 20.0005 0)
(0.700586 20.0005 0)
(0.700587 20.0005 0)
(0.700588 20.0005 0)
(0.700589 20.0005 0)
(0.700592 20.0005 0)
(0.700597 20.0005 0)
(0.700606 20.0005 0)
(0.70062 20.0005 0)
(0.700645 20.0005 0)
(0.700688 20.0004 0)
(0.700761 20.0003 0)
(0.700887 20.0002 0)
(0.701106 20.0001 0)
(0.701502 19.9999 0)
(0.702211 19.9998 0)
(0.703566 20.0001 0)
(0.705785 20.0011 0)
(0.709453 20.0024 0)
(0.536851 19.7218 0)
(0.559334 19.7923 0)
(0.590238 19.8445 0)
(0.610952 19.8815 0)
(0.621422 19.9112 0)
(0.628752 19.9346 0)
(0.633546 19.9527 0)
(0.637436 19.9664 0)
(0.640391 19.9766 0)
(0.642737 19.984 0)
(0.644518 19.9893 0)
(0.645865 19.993 0)
(0.646853 19.9956 0)
(0.647567 19.9974 0)
(0.648071 19.9985 0)
(0.64842 19.9993 0)
(0.648658 19.9998 0)
(0.648817 20.0001 0)
(0.648923 20.0003 0)
(0.648991 20.0004 0)
(0.649035 20.0004 0)
(0.649064 20.0005 0)
(0.649082 20.0005 0)
(0.649093 20.0005 0)
(0.6491 20.0005 0)
(0.649105 20.0005 0)
(0.649108 20.0005 0)
(0.649109 20.0005 0)
(0.64911 20.0005 0)
(0.649111 20.0005 0)
(0.649112 20.0005 0)
(0.649112 20.0005 0)
(0.649112 20.0005 0)
(0.649112 20.0005 0)
(0.649112 20.0005 0)
(0.649112 20.0005 0)
(0.649112 20.0005 0)
(0.649113 20.0005 0)
(0.649113 20.0005 0)
(0.649113 20.0005 0)
(0.649113 20.0005 0)
(0.649113 20.0005 0)
(0.649113 20.0005 0)
(0.649113 20.0005 0)
(0.649113 20.0005 0)
(0.649113 20.0005 0)
(0.649113 20.0005 0)
(0.649113 20.0005 0)
(0.649113 20.0005 0)
(0.649113 20.0005 0)
(0.649113 20.0005 0)
(0.649113 20.0005 0)
(0.649113 20.0005 0)
(0.649113 20.0005 0)
(0.649113 20.0005 0)
(0.649113 20.0005 0)
(0.649113 20.0005 0)
(0.649113 20.0005 0)
(0.649113 20.0005 0)
(0.649113 20.0005 0)
(0.649113 20.0005 0)
(0.649113 20.0005 0)
(0.649113 20.0005 0)
(0.649113 20.0005 0)
(0.649113 20.0005 0)
(0.649113 20.0005 0)
(0.649113 20.0005 0)
(0.649113 20.0005 0)
(0.649113 20.0005 0)
(0.649113 20.0005 0)
(0.649113 20.0005 0)
(0.649113 20.0005 0)
(0.649113 20.0005 0)
(0.649113 20.0005 0)
(0.649113 20.0005 0)
(0.649113 20.0005 0)
(0.649113 20.0005 0)
(0.649113 20.0005 0)
(0.649113 20.0005 0)
(0.649113 20.0005 0)
(0.649113 20.0005 0)
(0.649113 20.0005 0)
(0.649113 20.0005 0)
(0.649114 20.0005 0)
(0.649115 20.0005 0)
(0.649117 20.0005 0)
(0.64912 20.0005 0)
(0.649126 20.0005 0)
(0.649135 20.0005 0)
(0.649151 20.0005 0)
(0.649178 20.0004 0)
(0.649225 20.0004 0)
(0.649305 20.0003 0)
(0.649446 20.0002 0)
(0.649691 20 0)
(0.650139 19.9997 0)
(0.650944 19.9995 0)
(0.652488 19.9995 0)
(0.654992 20.0001 0)
(0.659132 20.0009 0)
(0.490841 19.6955 0)
(0.509083 19.7655 0)
(0.538069 19.8239 0)
(0.558065 19.8668 0)
(0.568809 19.9006 0)
(0.576258 19.9268 0)
(0.581224 19.947 0)
(0.585221 19.9622 0)
(0.588272 19.9735 0)
(0.590693 19.9818 0)
(0.592535 19.9878 0)
(0.593931 19.992 0)
(0.594957 19.9949 0)
(0.5957 19.9969 0)
(0.596226 19.9982 0)
(0.596591 19.9991 0)
(0.596841 19.9996 0)
(0.597009 20 0)
(0.59712 20.0002 0)
(0.597193 20.0003 0)
(0.59724 20.0004 0)
(0.59727 20.0004 0)
(0.59729 20.0005 0)
(0.597302 20.0005 0)
(0.59731 20.0005 0)
(0.597315 20.0005 0)
(0.597318 20.0005 0)
(0.59732 20.0005 0)
(0.597321 20.0005 0)
(0.597322 20.0005 0)
(0.597322 20.0005 0)
(0.597322 20.0005 0)
(0.597323 20.0005 0)
(0.597323 20.0005 0)
(0.597323 20.0005 0)
(0.597323 20.0005 0)
(0.597323 20.0005 0)
(0.597323 20.0005 0)
(0.597323 20.0005 0)
(0.597323 20.0005 0)
(0.597323 20.0005 0)
(0.597323 20.0005 0)
(0.597323 20.0005 0)
(0.597323 20.0005 0)
(0.597323 20.0005 0)
(0.597323 20.0005 0)
(0.597323 20.0005 0)
(0.597323 20.0005 0)
(0.597323 20.0005 0)
(0.597323 20.0005 0)
(0.597323 20.0005 0)
(0.597323 20.0005 0)
(0.597323 20.0005 0)
(0.597323 20.0005 0)
(0.597323 20.0005 0)
(0.597323 20.0005 0)
(0.597323 20.0005 0)
(0.597323 20.0005 0)
(0.597323 20.0005 0)
(0.597323 20.0005 0)
(0.597323 20.0005 0)
(0.597323 20.0005 0)
(0.597323 20.0005 0)
(0.597323 20.0005 0)
(0.597323 20.0005 0)
(0.597323 20.0005 0)
(0.597323 20.0005 0)
(0.597323 20.0005 0)
(0.597323 20.0005 0)
(0.597323 20.0005 0)
(0.597323 20.0005 0)
(0.597323 20.0005 0)
(0.597323 20.0005 0)
(0.597323 20.0005 0)
(0.597323 20.0005 0)
(0.597323 20.0005 0)
(0.597323 20.0005 0)
(0.597323 20.0005 0)
(0.597323 20.0005 0)
(0.597323 20.0005 0)
(0.597323 20.0005 0)
(0.597324 20.0005 0)
(0.597324 20.0005 0)
(0.597325 20.0005 0)
(0.597326 20.0005 0)
(0.597328 20.0005 0)
(0.597331 20.0005 0)
(0.597337 20.0005 0)
(0.597347 20.0005 0)
(0.597364 20.0004 0)
(0.597393 20.0004 0)
(0.597442 20.0003 0)
(0.597528 20.0002 0)
(0.597679 20.0001 0)
(0.597945 19.9998 0)
(0.598435 19.9995 0)
(0.599314 19.9992 0)
(0.600999 19.9989 0)
(0.603699 19.999 0)
(0.608106 19.9993 0)
(0.445857 19.6731 0)
(0.460646 19.7414 0)
(0.48724 19.8047 0)
(0.506142 19.8529 0)
(0.516831 19.8905 0)
(0.524218 19.9194 0)
(0.529219 19.9415 0)
(0.533223 19.9582 0)
(0.536292 19.9707 0)
(0.538723 19.9798 0)
(0.540579 19.9864 0)
(0.541985 19.991 0)
(0.543022 19.9942 0)
(0.543773 19.9964 0)
(0.544306 19.9979 0)
(0.544678 19.9989 0)
(0.544932 19.9995 0)
(0.545104 19.9999 0)
(0.545218 20.0001 0)
(0.545293 20.0003 0)
(0.545342 20.0003 0)
(0.545373 20.0004 0)
(0.545393 20.0004 0)
(0.545406 20.0005 0)
(0.545414 20.0005 0)
(0.545419 20.0005 0)
(0.545422 20.0005 0)
(0.545424 20.0005 0)
(0.545426 20.0005 0)
(0.545426 20.0005 0)
(0.545427 20.0005 0)
(0.545427 20.0005 0)
(0.545427 20.0005 0)
(0.545428 20.0005 0)
(0.545428 20.0005 0)
(0.545428 20.0005 0)
(0.545428 20.0005 0)
(0.545428 20.0005 0)
(0.545428 20.0005 0)
(0.545428 20.0005 0)
(0.545428 20.0005 0)
(0.545428 20.0005 0)
(0.545428 20.0005 0)
(0.545428 20.0005 0)
(0.545428 20.0005 0)
(0.545428 20.0005 0)
(0.545428 20.0005 0)
(0.545428 20.0005 0)
(0.545428 20.0005 0)
(0.545428 20.0005 0)
(0.545428 20.0005 0)
(0.545428 20.0005 0)
(0.545428 20.0005 0)
(0.545428 20.0005 0)
(0.545428 20.0005 0)
(0.545428 20.0005 0)
(0.545428 20.0005 0)
(0.545428 20.0005 0)
(0.545428 20.0005 0)
(0.545428 20.0005 0)
(0.545428 20.0005 0)
(0.545428 20.0005 0)
(0.545428 20.0005 0)
(0.545428 20.0005 0)
(0.545428 20.0005 0)
(0.545428 20.0005 0)
(0.545428 20.0005 0)
(0.545428 20.0005 0)
(0.545428 20.0005 0)
(0.545428 20.0005 0)
(0.545428 20.0005 0)
(0.545428 20.0005 0)
(0.545428 20.0005 0)
(0.545428 20.0005 0)
(0.545428 20.0005 0)
(0.545428 20.0005 0)
(0.545428 20.0005 0)
(0.545428 20.0005 0)
(0.545428 20.0005 0)
(0.545428 20.0005 0)
(0.545428 20.0005 0)
(0.545429 20.0005 0)
(0.545429 20.0005 0)
(0.54543 20.0005 0)
(0.545431 20.0005 0)
(0.545433 20.0005 0)
(0.545436 20.0005 0)
(0.545442 20.0005 0)
(0.545453 20.0004 0)
(0.54547 20.0004 0)
(0.5455 20.0004 0)
(0.545551 20.0003 0)
(0.54564 20.0002 0)
(0.545798 20 0)
(0.546078 19.9997 0)
(0.546596 19.9993 0)
(0.547525 19.9988 0)
(0.549299 19.9982 0)
(0.552104 19.9977 0)
(0.556603 19.9974 0)
(0.401685 19.6539 0)
(0.413666 19.7199 0)
(0.437627 19.787 0)
(0.455158 19.84 0)
(0.465508 19.8812 0)
(0.472665 19.9125 0)
(0.477577 19.9365 0)
(0.481493 19.9545 0)
(0.484504 19.968 0)
(0.486888 19.9779 0)
(0.488711 19.985 0)
(0.490093 19.9901 0)
(0.491114 19.9936 0)
(0.491855 19.996 0)
(0.492382 19.9976 0)
(0.49275 19.9987 0)
(0.493002 19.9993 0)
(0.493173 19.9998 0)
(0.493287 20 0)
(0.493362 20.0002 0)
(0.49341 20.0003 0)
(0.493442 20.0004 0)
(0.493462 20.0004 0)
(0.493475 20.0004 0)
(0.493483 20.0004 0)
(0.493489 20.0005 0)
(0.493492 20.0005 0)
(0.493494 20.0005 0)
(0.493495 20.0005 0)
(0.493496 20.0005 0)
(0.493497 20.0005 0)
(0.493497 20.0005 0)
(0.493497 20.0005 0)
(0.493497 20.0005 0)
(0.493497 20.0005 0)
(0.493498 20.0005 0)
(0.493498 20.0005 0)
(0.493498 20.0005 0)
(0.493498 20.0005 0)
(0.493498 20.0005 0)
(0.493498 20.0005 0)
(0.493498 20.0005 0)
(0.493498 20.0005 0)
(0.493498 20.0005 0)
(0.493498 20.0005 0)
(0.493498 20.0005 0)
(0.493498 20.0005 0)
(0.493498 20.0005 0)
(0.493498 20.0005 0)
(0.493498 20.0005 0)
(0.493498 20.0005 0)
(0.493498 20.0005 0)
(0.493498 20.0005 0)
(0.493498 20.0005 0)
(0.493498 20.0005 0)
(0.493498 20.0005 0)
(0.493498 20.0005 0)
(0.493498 20.0005 0)
(0.493498 20.0005 0)
(0.493498 20.0005 0)
(0.493498 20.0005 0)
(0.493498 20.0005 0)
(0.493498 20.0005 0)
(0.493498 20.0005 0)
(0.493498 20.0005 0)
(0.493498 20.0005 0)
(0.493498 20.0005 0)
(0.493498 20.0005 0)
(0.493498 20.0005 0)
(0.493498 20.0005 0)
(0.493498 20.0005 0)
(0.493498 20.0005 0)
(0.493498 20.0005 0)
(0.493498 20.0005 0)
(0.493498 20.0005 0)
(0.493498 20.0005 0)
(0.493498 20.0005 0)
(0.493498 20.0005 0)
(0.493498 20.0005 0)
(0.493498 20.0005 0)
(0.493498 20.0005 0)
(0.493498 20.0005 0)
(0.493499 20.0005 0)
(0.493499 20.0005 0)
(0.493501 20.0005 0)
(0.493503 20.0005 0)
(0.493506 20.0004 0)
(0.493512 20.0004 0)
(0.493522 20.0004 0)
(0.49354 20.0004 0)
(0.49357 20.0003 0)
(0.493621 20.0003 0)
(0.493712 20.0001 0)
(0.493872 19.9999 0)
(0.494159 19.9996 0)
(0.49469 19.9991 0)
(0.495641 19.9984 0)
(0.49745 19.9975 0)
(0.500273 19.9964 0)
(0.504715 19.9956 0)
(0.358147 19.6375 0)
(0.367836 19.701 0)
(0.389072 19.771 0)
(0.405033 19.8283 0)
(0.414806 19.8726 0)
(0.421583 19.9062 0)
(0.426288 19.9318 0)
(0.430031 19.9511 0)
(0.432915 19.9655 0)
(0.435198 19.9761 0)
(0.436946 19.9837 0)
(0.438273 19.9892 0)
(0.439254 19.993 0)
(0.439967 19.9956 0)
(0.440474 19.9973 0)
(0.440829 19.9985 0)
(0.441073 19.9992 0)
(0.441239 19.9997 0)
(0.441349 20 0)
(0.441422 20.0002 0)
(0.44147 20.0003 0)
(0.441501 20.0003 0)
(0.441521 20.0004 0)
(0.441533 20.0004 0)
(0.441541 20.0004 0)
(0.441547 20.0004 0)
(0.44155 20.0004 0)
(0.441552 20.0004 0)
(0.441553 20.0004 0)
(0.441554 20.0004 0)
(0.441555 20.0004 0)
(0.441555 20.0004 0)
(0.441555 20.0004 0)
(0.441555 20.0004 0)
(0.441555 20.0004 0)
(0.441556 20.0004 0)
(0.441556 20.0004 0)
(0.441556 20.0004 0)
(0.441556 20.0004 0)
(0.441556 20.0004 0)
(0.441556 20.0004 0)
(0.441556 20.0004 0)
(0.441556 20.0004 0)
(0.441556 20.0004 0)
(0.441556 20.0004 0)
(0.441556 20.0004 0)
(0.441556 20.0004 0)
(0.441556 20.0004 0)
(0.441556 20.0004 0)
(0.441556 20.0004 0)
(0.441556 20.0004 0)
(0.441556 20.0004 0)
(0.441556 20.0004 0)
(0.441556 20.0004 0)
(0.441556 20.0004 0)
(0.441556 20.0004 0)
(0.441556 20.0004 0)
(0.441556 20.0004 0)
(0.441556 20.0004 0)
(0.441556 20.0004 0)
(0.441556 20.0004 0)
(0.441556 20.0004 0)
(0.441556 20.0004 0)
(0.441556 20.0004 0)
(0.441556 20.0004 0)
(0.441556 20.0004 0)
(0.441556 20.0004 0)
(0.441556 20.0004 0)
(0.441556 20.0004 0)
(0.441556 20.0004 0)
(0.441556 20.0004 0)
(0.441556 20.0004 0)
(0.441556 20.0004 0)
(0.441556 20.0004 0)
(0.441556 20.0004 0)
(0.441556 20.0004 0)
(0.441556 20.0004 0)
(0.441556 20.0004 0)
(0.441556 20.0004 0)
(0.441556 20.0004 0)
(0.441556 20.0004 0)
(0.441556 20.0004 0)
(0.441557 20.0004 0)
(0.441557 20.0004 0)
(0.441558 20.0004 0)
(0.44156 20.0004 0)
(0.441564 20.0004 0)
(0.44157 20.0004 0)
(0.44158 20.0004 0)
(0.441597 20.0004 0)
(0.441626 20.0003 0)
(0.441677 20.0002 0)
(0.441766 20.0001 0)
(0.441925 19.9998 0)
(0.44221 19.9995 0)
(0.44274 19.9989 0)
(0.443685 19.998 0)
(0.445474 19.9967 0)
(0.448232 19.9951 0)
(0.452492 19.9937 0)
(0.315105 19.6236 0)
(0.32291 19.6846 0)
(0.341417 19.7568 0)
(0.355669 19.8176 0)
(0.364668 19.8648 0)
(0.370935 19.9004 0)
(0.37533 19.9275 0)
(0.37882 19.9479 0)
(0.381516 19.9632 0)
(0.383648 19.9744 0)
(0.385282 19.9826 0)
(0.386524 19.9884 0)
(0.387443 19.9924 0)
(0.388112 19.9952 0)
(0.388589 19.997 0)
(0.388923 19.9983 0)
(0.389153 19.9991 0)
(0.389309 19.9996 0)
(0.389413 19.9999 0)
(0.389482 20.0001 0)
(0.389528 20.0002 0)
(0.389557 20.0003 0)
(0.389576 20.0004 0)
(0.389588 20.0004 0)
(0.389596 20.0004 0)
(0.389601 20.0004 0)
(0.389604 20.0004 0)
(0.389606 20.0004 0)
(0.389607 20.0004 0)
(0.389608 20.0004 0)
(0.389609 20.0004 0)
(0.389609 20.0004 0)
(0.389609 20.0004 0)
(0.389609 20.0004 0)
(0.389609 20.0004 0)
(0.38961 20.0004 0)
(0.38961 20.0004 0)
(0.38961 20.0004 0)
(0.38961 20.0004 0)
(0.38961 20.0004 0)
(0.38961 20.0004 0)
(0.38961 20.0004 0)
(0.38961 20.0004 0)
(0.38961 20.0004 0)
(0.38961 20.0004 0)
(0.38961 20.0004 0)
(0.38961 20.0004 0)
(0.38961 20.0004 0)
(0.38961 20.0004 0)
(0.38961 20.0004 0)
(0.38961 20.0004 0)
(0.38961 20.0004 0)
(0.38961 20.0004 0)
(0.38961 20.0004 0)
(0.38961 20.0004 0)
(0.38961 20.0004 0)
(0.38961 20.0004 0)
(0.38961 20.0004 0)
(0.38961 20.0004 0)
(0.38961 20.0004 0)
(0.38961 20.0004 0)
(0.38961 20.0004 0)
(0.38961 20.0004 0)
(0.38961 20.0004 0)
(0.38961 20.0004 0)
(0.38961 20.0004 0)
(0.38961 20.0004 0)
(0.38961 20.0004 0)
(0.38961 20.0004 0)
(0.38961 20.0004 0)
(0.38961 20.0004 0)
(0.38961 20.0004 0)
(0.38961 20.0004 0)
(0.38961 20.0004 0)
(0.38961 20.0004 0)
(0.38961 20.0004 0)
(0.38961 20.0004 0)
(0.38961 20.0004 0)
(0.38961 20.0004 0)
(0.38961 20.0004 0)
(0.38961 20.0004 0)
(0.38961 20.0004 0)
(0.389611 20.0004 0)
(0.389611 20.0004 0)
(0.389612 20.0004 0)
(0.389614 20.0004 0)
(0.389618 20.0004 0)
(0.389623 20.0004 0)
(0.389633 20.0004 0)
(0.389649 20.0004 0)
(0.389677 20.0003 0)
(0.389725 20.0002 0)
(0.38981 20 0)
(0.389964 19.9998 0)
(0.390239 19.9993 0)
(0.390752 19.9986 0)
(0.391664 19.9976 0)
(0.39338 19.996 0)
(0.395998 19.9938 0)
(0.399971 19.9919 0)
(0.272449 19.6118 0)
(0.27869 19.6705 0)
(0.294516 19.7443 0)
(0.306966 19.8082 0)
(0.315033 19.8579 0)
(0.320676 19.8953 0)
(0.324668 19.9237 0)
(0.327836 19.9451 0)
(0.330287 19.9611 0)
(0.332226 19.973 0)
(0.333713 19.9815 0)
(0.334843 19.9876 0)
(0.335681 19.9919 0)
(0.336291 19.9948 0)
(0.336726 19.9968 0)
(0.337032 19.9981 0)
(0.337242 19.999 0)
(0.337385 19.9995 0)
(0.337481 19.9999 0)
(0.337545 20.0001 0)
(0.337587 20.0002 0)
(0.337614 20.0003 0)
(0.337631 20.0003 0)
(0.337643 20.0004 0)
(0.33765 20.0004 0)
(0.337654 20.0004 0)
(0.337657 20.0004 0)
(0.337659 20.0004 0)
(0.33766 20.0004 0)
(0.337661 20.0004 0)
(0.337661 20.0004 0)
(0.337662 20.0004 0)
(0.337662 20.0004 0)
(0.337662 20.0004 0)
(0.337662 20.0004 0)
(0.337662 20.0004 0)
(0.337662 20.0004 0)
(0.337662 20.0004 0)
(0.337662 20.0004 0)
(0.337662 20.0004 0)
(0.337662 20.0004 0)
(0.337662 20.0004 0)
(0.337662 20.0004 0)
(0.337662 20.0004 0)
(0.337662 20.0004 0)
(0.337662 20.0004 0)
(0.337662 20.0004 0)
(0.337662 20.0004 0)
(0.337662 20.0004 0)
(0.337662 20.0004 0)
(0.337662 20.0004 0)
(0.337662 20.0004 0)
(0.337662 20.0004 0)
(0.337662 20.0004 0)
(0.337662 20.0004 0)
(0.337662 20.0004 0)
(0.337662 20.0004 0)
(0.337662 20.0004 0)
(0.337662 20.0004 0)
(0.337662 20.0004 0)
(0.337662 20.0004 0)
(0.337662 20.0004 0)
(0.337662 20.0004 0)
(0.337662 20.0004 0)
(0.337662 20.0004 0)
(0.337662 20.0004 0)
(0.337662 20.0004 0)
(0.337662 20.0004 0)
(0.337662 20.0004 0)
(0.337662 20.0004 0)
(0.337662 20.0004 0)
(0.337662 20.0004 0)
(0.337662 20.0004 0)
(0.337662 20.0004 0)
(0.337662 20.0004 0)
(0.337662 20.0004 0)
(0.337662 20.0004 0)
(0.337662 20.0004 0)
(0.337662 20.0004 0)
(0.337663 20.0004 0)
(0.337663 20.0004 0)
(0.337663 20.0004 0)
(0.337663 20.0004 0)
(0.337664 20.0004 0)
(0.337665 20.0004 0)
(0.337667 20.0004 0)
(0.33767 20.0004 0)
(0.337675 20.0004 0)
(0.337683 20.0004 0)
(0.337698 20.0003 0)
(0.337724 20.0003 0)
(0.337769 20.0002 0)
(0.337848 20 0)
(0.337992 19.9997 0)
(0.338249 19.9992 0)
(0.338729 19.9984 0)
(0.339582 19.9972 0)
(0.341176 19.9953 0)
(0.343586 19.9926 0)
(0.347186 19.9902 0)
(0.230095 19.6021 0)
(0.235022 19.6586 0)
(0.248236 19.7336 0)
(0.258825 19.8001 0)
(0.265834 19.8519 0)
(0.270758 19.8908 0)
(0.274269 19.9204 0)
(0.277053 19.9427 0)
(0.279211 19.9594 0)
(0.280917 19.9717 0)
(0.282227 19.9806 0)
(0.283223 19.987 0)
(0.283961 19.9914 0)
(0.2845 19.9945 0)
(0.284884 19.9966 0)
(0.285155 19.998 0)
(0.285341 19.9989 0)
(0.285468 19.9994 0)
(0.285553 19.9998 0)
(0.28561 20 0)
(0.285647 20.0002 0)
(0.285671 20.0003 0)