/*--------------------------------*- C++ -*----------------------------------*\
| =========                 |                                                 |
| \\      /  F ield         | OpenFOAM: The Open Source CFD Toolbox           |
|  \\    /   O peration     | Version:  5.x                                   |
|   \\  /    A nd           | Web:      www.OpenFOAM.org                      |
|    \\/     M anipulation  |                                                 |
\*---------------------------------------------------------------------------*/
FoamFile
{
    version     2.0;
    format      ascii;
    class       volScalarField;
    location    "0.5";
    object      p;
}
// * * * * * * * * * * * * * * * * * * * * * * * * * * * * * * * * * * * * * //

dimensions      [0 2 -2 0 0 0 0];

internalField   nonuniform List<scalar> 
4000
(
426.161
412.925
408.879
403.622
398.969
394.222
389.671
385.186
380.795
376.461
372.178
367.931
363.711
359.511
355.326
351.15
346.982
342.817
338.656
334.497
330.339
326.182
322.025
317.869
313.713
309.557
305.401
301.245
297.089
292.933
288.777
284.621
280.466
276.31
272.154
267.998
263.842
259.686
255.531
251.375
247.219
243.063
238.907
234.751
230.596
226.44
222.284
218.128
213.972
209.816
205.66
201.505
197.349
193.193
189.037
184.881
180.726
176.57
172.414
168.258
164.102
159.946
155.791
151.635
147.479
143.323
139.167
135.011
130.855
126.699
122.544
118.388
114.232
110.076
105.92
101.764
97.6085
93.4527
89.2969
85.1411
80.9854
76.8296
72.6738
68.518
64.3622
60.2065
56.0508
51.8951
47.7396
43.5844
39.4295
35.2753
31.1221
26.9706
22.8215
18.6756
14.5341
10.3945
6.27178
2.14865
423.713
412.835
408.729
403.434
398.779
394.03
389.479
384.993
380.602
376.267
371.984
367.736
363.517
359.317
355.131
350.955
346.786
342.622
338.461
334.302
330.144
325.987
321.83
317.674
313.518
309.362
305.206
301.05
296.894
292.738
288.582
284.426
280.27
276.114
271.959
267.803
263.647
259.491
255.335
251.18
247.024
242.868
238.712
234.556
230.4
226.244
222.089
217.933
213.777
209.621
205.465
201.309
197.153
192.998
188.842
184.686
180.53
176.374
172.219
168.063
163.907
159.751
155.595
151.439
147.284
143.128
138.972
134.816
130.66
126.504
122.348
118.192
114.037
109.881
105.725
101.569
97.4132
93.2574
89.1016
84.9458
80.7901
76.6343
72.4785
68.3227
64.167
60.0112
55.8555
51.6999
47.5443
43.3891
39.2342
35.08
30.9268
26.7753
22.6262
18.4803
14.3389
10.1999
6.07843
1.96704
422.431
412.832
408.682
403.355
398.7
393.947
389.396
384.908
380.517
376.182
371.898
367.65
363.43
359.23
355.044
350.868
346.7
342.535
338.374
334.215
330.057
325.9
321.743
317.587
313.431
309.275
305.119
300.963
296.807
292.651
288.495
284.339
280.183
276.028
271.872
267.716
263.56
259.404
255.248
251.093
246.937
242.781
238.625
234.469
230.313
226.157
222.002
217.846
213.69
209.534
205.378
201.222
197.067
192.911
188.755
184.599
180.443
176.288
172.132
167.976
163.82
159.664
155.508
151.353
147.197
143.041
138.885
134.729
130.573
126.417
122.261
118.106
113.95
109.794
105.638
101.482
97.3263
93.1705
89.0147
84.8589
80.7031
76.5474
72.3916
68.2358
64.08
59.9243
55.7686
51.6129
47.4574
43.3022
39.1473
34.9931
30.8399
26.6883
22.5392
18.3933
14.2521
10.1131
5.99232
1.88592
421.913
412.924
408.719
403.372
398.717
393.959
389.408
384.919
380.527
376.192
371.908
367.659
363.439
359.239
355.053
350.877
346.708
342.544
338.383
334.223
330.065
325.908
321.752
317.595
313.439
309.283
305.127
300.971
296.815
292.659
288.504
284.348
280.192
276.036
271.88
267.724
263.568
259.413
255.257
251.101
246.945
242.789
238.633
234.478
230.322
226.166
222.01
217.854
213.698
209.542
205.387
201.231
197.075
192.919
188.763
184.608
180.452
176.296
172.14
167.984
163.828
159.673
155.517
151.361
147.205
143.049
138.893
134.737
130.582
126.426
122.27
118.114
113.958
109.802
105.646
101.491
97.3347
93.1789
89.0231
84.8673
80.7115
76.5558
72.4
68.2442
64.0884
59.9327
55.777
51.6213
47.4658
43.3106
39.1557
35.0015
30.8483
26.6967
22.5476
18.4017
14.2605
10.1219
5.99992
1.89073
421.576
413.035
408.783
403.419
398.76
393.998
389.447
384.957
380.565
376.229
371.944
367.696
363.476
359.275
355.089
350.913
346.745
342.58
338.419
334.26
330.102
325.945
321.788
317.632
313.475
309.319
305.163
301.008
296.852
292.696
288.54
284.384
280.228
276.072
271.917
267.761
263.605
259.449
255.293
251.137
246.982
242.826
238.67
234.514
230.358
226.202
222.046
217.891
213.735
209.579
205.423
201.267
197.111
192.956
188.8
184.644
180.488
176.332
172.176
168.021
163.865
159.709
155.553
151.397
147.241
143.086
138.93
134.774
130.618
126.462
122.306
118.15
113.994
109.839
105.683
101.527
97.3711
93.2153
89.0595
84.9037
80.748
76.5922
72.4364
68.2806
64.1248
59.9691
55.8134
51.6577
47.5022
43.3469
39.1921
35.0378
30.8846
26.733
22.5839
18.4381
14.297
10.1582
6.0353
1.92177
421.272
413.131
408.851
403.469
398.806
394.039
389.488
384.997
380.605
376.268
371.984
367.735
363.514
359.314
355.128
350.952
346.783
342.619
338.457
334.298
330.14
325.983
321.826
317.67
313.514
309.358
305.202
301.046
296.89
292.734
288.578
284.422
280.267
276.111
271.955
267.799
263.643
259.487
255.332
251.176
247.02
242.864
238.708
234.552
230.396
226.241
222.085
217.929
213.773
209.617
205.461
201.306
197.15
192.994
188.838
184.682
180.526
176.371
172.215
168.059
163.903
159.747
155.592
151.436
147.28
143.124
138.968
134.812
130.656
126.5
122.345
118.189
114.033
109.877
105.721
101.565
97.4095
93.2537
89.0979
84.9421
80.7863
76.6305
72.4748
68.319
64.1632
60.0074
55.8517
51.6961
47.5406
43.3853
39.2304
35.0762
30.923
26.7714
22.6222
18.4764
14.3353
10.197
6.07301
1.95503
421.002
413.209
408.915
403.517
398.849
394.078
389.527
385.036
380.643
376.306
372.021
367.772
363.551
359.351
355.165
350.989
346.82
342.655
338.494
334.335
330.177
326.02
321.863
317.707
313.55
309.394
305.238
301.083
296.927
292.771
288.615
284.459
280.303
276.147
271.992
267.836
263.68
259.524
255.368
251.212
247.057
242.901
238.745
234.589
230.433
226.277
222.121
217.966
213.81
209.654
205.498
201.342
197.186
193.031
188.875
184.719
180.563
176.407
172.252
168.096
163.94
159.784
155.628
151.472
147.316
143.161
139.005
134.849
130.693
126.537
122.381
118.225
114.069
109.914
105.758
101.602
97.4461
93.2903
89.1346
84.9788
80.823
76.6672
72.5114
68.3556
64.1999
60.0441
55.8884
51.7327
47.5772
43.422
39.2671
35.1128
30.9596
26.808
22.6588
18.513
14.3721
10.2343
6.10886
1.98645
420.768
413.274
408.975
403.564
398.889
394.114
389.564
385.071
380.678
376.341
372.056
367.807
363.586
359.385
355.199
351.023
346.854
342.69
338.529
334.369
330.211
326.054
321.898
317.741
313.585
309.429
305.273
301.117
296.961
292.805
288.65
284.494
280.338
276.182
272.026
267.87
263.715
259.559
255.403
251.247
247.091
242.935
238.78
234.624
230.468
226.312
222.156
218
213.844
209.689
205.533
201.377
197.221
193.065
188.909
184.754
180.598
176.442
172.286
168.13
163.975
159.819
155.663
151.507
147.351
143.195
139.039
134.884
130.728
126.572
122.416
118.26
114.104
109.948
105.792
101.637
97.4808
93.325
89.1692
85.0134
80.8577
76.7019
72.5461
68.3903
64.2345
60.0788
55.9231
51.7674
47.6119
43.4566
39.3017
35.1475
30.9942
26.8426
22.6935
18.5477
14.4069
10.2696
6.14262
2.01586
420.564
413.326
409.031
403.608
398.926
394.148
389.598
385.105
380.712
376.374
372.089
367.839
363.619
359.418
355.232
351.056
346.886
342.722
338.561
334.402
330.244
326.087
321.93
317.774
313.617
309.461
305.305
301.15
296.994
292.838
288.682
284.526
280.37
276.214
272.059
267.903
263.747
259.591
255.435
251.279
247.124
242.968
238.812
234.656
230.5
226.344
222.188
218.033
213.877
209.721
205.565
201.409
197.253
193.098
188.942
184.786
180.63
176.474
172.318
168.163
164.007
159.851
155.695
151.539
147.383
143.228
139.072
134.916
130.76
126.604
122.448
118.292
114.136
109.981
105.825
101.669
97.5131
93.3573
89.2015
85.0457
80.89
76.7342
72.5784
68.4226
64.2668
60.1111
55.9554
51.7997
47.6442
43.4889
39.334
35.1798
31.0265
26.8749
22.7257
18.58
14.4392
10.3027
6.17409
2.0431
420.386
413.369
409.082
403.649
398.96
394.179
389.629
385.135
380.742
376.404
372.119
367.869
363.648
359.447
355.261
351.085
346.916
342.752
338.591
334.431
330.273
326.116
321.96
317.803
313.647
309.491
305.335
301.179
297.023
292.867
288.712
284.556
280.4
276.244
272.088
267.932
263.777
259.621
255.465
251.309
247.153
242.997
238.841
234.686
230.53
226.374
222.218
218.062
213.906
209.751
205.595
201.439
197.283
193.127
188.971
184.816
180.66
176.504
172.348
168.192
164.037
159.881
155.725
151.569
147.413
143.257
139.101
134.946
130.79
126.634
122.478
118.322
114.166
110.01
105.854
101.699
97.5428
93.387
89.2312
85.0754
80.9196
76.7638
72.6081
68.4523
64.2965
60.1407
55.985
51.8294
47.6739
43.5186
39.3637
35.2094
31.0562
26.9045
22.7553
18.6097
14.469
10.3332
6.20303
2.06804
420.23
413.403
409.128
403.687
398.991
394.207
389.657
385.163
380.77
376.431
372.146
367.896
363.675
359.474
355.288
351.112
346.943
342.779
338.617
334.458
330.3
326.143
321.987
317.83
313.674
309.518
305.362
301.206
297.05
292.894
288.739
284.583
280.427
276.271
272.115
267.959
263.804
259.648
255.492
251.336
247.18
243.024
238.868
234.713
230.557
226.401
222.245
218.089
213.933
209.777
205.622
201.466
197.31
193.154
188.998
184.843
180.687
176.531
172.375
168.219
164.063
159.908
155.752
151.596
147.44
143.284
139.128
134.973
130.817
126.661
122.505
118.349
114.193
110.037
105.881
101.726
97.5698
93.414
89.2582
85.1024
80.9466
76.7908
72.635
68.4793
64.3235
60.1677
56.012
51.8564
47.7008
43.5456
39.3906
35.2364
31.0831
26.9315
22.7823
18.6368
14.496
10.361
6.22937
2.09064
420.095
413.43
409.169
403.722
399.019
394.232
389.682
385.188
380.794
376.456
372.171
367.921
363.7
359.499
355.313
351.136
346.967
342.803
338.642
334.482
330.325
326.167
322.011
317.854
313.698
309.542
305.386
301.23
297.075
292.919
288.763
284.607
280.451
276.295
272.139
267.984
263.828
259.672
255.516
251.36
247.204
243.049
238.893
234.737
230.581
226.425
222.269
218.113
213.958
209.802
205.646
201.49
197.334
193.178
189.023
184.867
180.711
176.555
172.399
168.244
164.088
159.932
155.776
151.62
147.464
143.309
139.153
134.997
130.841
126.685
122.529
118.373
114.217
110.062
105.906
101.75
97.5941
93.4383
89.2825
85.1267
80.9709
76.8151
72.6593
68.5035
64.3478
60.192
56.0363
51.8806
47.7251
43.5698
39.4149
35.2607
31.1074
26.9558
22.8065
18.6611
14.5204
10.3862
6.25311
2.11091
419.979
413.452
409.205
403.753
399.044
394.254
389.704
385.21
380.817
376.478
372.192
367.943
363.721
359.52
355.334
351.158
346.989
342.825
338.663
334.504
330.346
326.189
322.032
317.876
313.72
309.564
305.408
301.252
297.096
292.94
288.784
284.629
280.473
276.317
272.161
268.005
263.849
259.694
255.538
251.382
247.226
243.07
238.914
234.758
230.603
226.447
222.291
218.135
213.979
209.823
205.668
201.512
197.356
193.2
189.044
184.888
180.733
176.577
172.421
168.265
164.109
159.954
155.798
151.642
147.486
143.33
139.174
135.018
130.862
126.707
122.551
118.395
114.239
110.083
105.927
101.771
97.6156
93.4598
89.3041
85.1483
80.9925
76.8367
72.6809
68.5251
64.3693
60.2136
56.0579
51.9022
47.7467
43.5914
39.4365
35.2822
31.129
26.9773
22.8281
18.6827
14.5421
10.4086
6.27423
2.12889
419.881
413.47
409.237
403.78
399.066
394.274
389.724
385.229
380.836
376.497
372.211
367.962
363.74
359.539
355.353
351.177
347.008
342.843
338.682
334.523
330.365
326.208
322.051
317.895
313.739
309.583
305.427
301.271
297.115
292.959
288.803
284.647
280.492
276.336
272.18
268.024
263.868
259.712
255.557
251.401
247.245
243.089
238.933
234.777
230.621
226.466
222.31
218.154
213.998
209.842
205.686
201.531
197.375
193.219
189.063
184.907
180.752
176.596
172.44
168.284
164.128
159.972
155.817
151.661
147.505
143.349
139.193
135.037
130.881
126.725
122.57
118.414
114.258
110.102
105.946
101.79
97.6345
93.4787
89.3229
85.1672
81.0114
76.8556
72.6998
68.544
64.3882
60.2325
56.0768
51.9211
47.7656
43.6103
39.4554
35.3011
31.1478
26.9962
22.8469
18.7017
14.561
10.4283
6.29273
2.1446
419.799
413.483
409.264
403.804
399.085
394.29
389.74
385.245
380.852
376.514
372.228
367.978
363.757
359.555
355.369
351.193
347.024
342.86
338.698
334.539
330.381
326.224
322.067
317.911
313.755
309.599
305.443
301.287
297.131
292.975
288.819
284.664
280.508
276.352
272.196
268.04
263.884
259.729
255.573
251.417
247.261
243.105
238.949
234.794
230.638
226.482
222.326
218.17
214.014
209.858
205.703
201.547
197.391
193.235
189.079
184.924
180.768
176.612
172.456
168.3
164.144
159.989
155.833
151.677
147.521
143.365
139.209
135.053
130.898
126.742
122.586
118.43
114.274
110.118
105.962
101.807
97.6507
93.4949
89.3391
85.1833
81.0276
76.8718
72.716
68.5602
64.4044
60.2487
56.093
51.9373
47.7818
43.6265
39.4716
35.3173
31.164
27.0124
22.8631
18.7179
14.5773
10.4452
6.3086
2.15804
419.732
413.493
409.286
403.824
399.1
394.304
389.754
385.259
380.866
376.527
372.241
367.991
363.77
359.569
355.383
351.206
347.037
342.873
338.712
334.553
330.395
326.238
322.081
317.925
313.768
309.612
305.456
301.301
297.145
292.989
288.833
284.677
280.521
276.365
272.21
268.054
263.898
259.742
255.586
251.43
247.275
243.119
238.963
234.807
230.651
226.495
222.339
218.184
214.028
209.872
205.716
201.56
197.404
193.249
189.093
184.937
180.781
176.625
172.47
168.314
164.158
160.002
155.846
151.69
147.535
143.379
139.223
135.067
130.911
126.755
122.599
118.443
114.288
110.132
105.976
101.82
97.6642
93.5084
89.3526
85.1968
81.0411
76.8853
72.7295
68.5737
64.4179
60.2622
56.1064
51.9508
47.7953
43.64
39.4851
35.3308
31.1775
27.0259
22.8766
18.7314
14.5908
10.4594
6.32183
2.16922
419.679
413.501
409.304
403.84
399.112
394.315
389.765
385.27
380.877
376.538
372.252
368.002
363.781
359.58
355.393
351.217
347.048
342.884
338.723
334.563
330.405
326.248
322.092
317.935
313.779
309.623
305.467
301.311
297.155
293
288.844
284.688
280.532
276.376
272.22
268.065
263.909
259.753
255.597
251.441
247.285
243.13
238.974
234.818
230.662
226.506
222.35
218.194
214.039
209.883
205.727
201.571
197.415
193.259
189.104
184.948
180.792
176.636
172.48
168.325
164.169
160.013
155.857
151.701
147.545
143.39
139.234
135.078
130.922
126.766
122.61
118.454
114.298
110.143
105.987
101.831
97.675
93.5192
89.3634
85.2076
81.0519
76.8961
72.7403
68.5845
64.4287
60.273
56.1172
51.9616
47.8061
43.6508
39.4959
35.3416
31.1883
27.0367
22.8874
18.7423
14.6017
10.4707
6.33243
2.17816
419.64
413.506
409.317
403.852
399.122
394.324
389.773
385.278
380.885
376.546
372.26
368.01
363.789
359.588
355.401
351.225
347.056
342.892
338.731
334.571
330.413
326.256
322.1
317.943
313.787
309.631
305.475
301.319
297.164
293.008
288.852
284.696
280.54
276.384
272.229
268.073
263.917
259.761
255.605
251.449
247.293
243.138
238.982
234.826
230.67
226.514
222.358
218.202
214.047
209.891
205.735
201.579
197.423
193.268
189.112
184.956
180.8
176.644
172.488
168.333
164.177
160.021
155.865
151.709
147.553
143.398
139.242
135.086
130.93
126.774
122.618
118.462
114.306
110.151
105.995
101.839
97.6831
93.5273
89.3715
85.2157
81.06
76.9042
72.7484
68.5926
64.4368
60.2811
56.1253
51.9697
47.8142
43.6589
39.504
35.3497
31.1964
27.0448
22.8955
18.7504
14.6098
10.4792
6.34039
2.18486
419.615
413.51
409.326
403.86
399.128
394.329
389.779
385.284
380.891
376.552
372.266
368.016
363.794
359.593
355.407
351.231
347.062
342.897
338.736
334.577
330.419
326.262
322.105
317.949
313.793
309.637
305.481
301.325
297.169
293.013
288.857
284.701
280.546
276.39
272.234
268.078
263.922
259.766
255.611
251.455
247.299
243.143
238.987
234.831
230.675
226.52
222.364
218.208
214.052
209.896
205.74
201.585
197.429
193.273
189.117
184.961
180.805
176.65
172.494
168.338
164.182
160.026
155.871
151.715
147.559
143.403
139.247
135.091
130.935
126.779
122.624
118.468
114.312
110.156
106
101.844
97.6885
93.5327
89.3769
85.2211
81.0654
76.9096
72.7538
68.598
64.4422
60.2865
56.1307
51.9751
47.8196
43.6643
39.5094
35.3551
31.2018
27.0502
22.9008
18.7558
14.6152
10.4849
6.34569
2.18932
419.602
413.511
409.331
403.864
399.131
394.332
389.782
385.286
380.893
376.554
372.269
368.018
363.797
359.596
355.41
351.233
347.064
342.9
338.739
334.579
330.422
326.264
322.108
317.952
313.795
309.639
305.483
301.328
297.172
293.016
288.86
284.704
280.548
276.392
272.237
268.081
263.925
259.769
255.613
251.457
247.302
243.146
238.99
234.834
230.678
226.522
222.366
218.211
214.055
209.899
205.743
201.587
197.431
193.276
189.12
184.964
180.808
176.652
172.497
168.341
164.185
160.029
155.873
151.717
147.562
143.406
139.25
135.094
130.938
126.782
122.626
118.47
114.315
110.159
106.003
101.847
97.6912
93.5354
89.3796
85.2238
81.0681
76.9123
72.7565
68.6007
64.4449
60.2892
56.1334
51.9778
47.8223
43.667
39.5121
35.3578
31.2045
27.0529
22.9035
18.7585
14.6179
10.4877
6.34834
2.19156
419.602
413.511
409.331
403.864
399.131
394.332
389.782
385.286
380.893
376.554
372.269
368.018
363.797
359.596
355.41
351.233
347.064
342.9
338.739
334.579
330.422
326.264
322.108
317.952
313.795
309.639
305.483
301.328
297.172
293.016
288.86
284.704
280.548
276.392
272.237
268.081
263.925
259.769
255.613
251.457
247.302
243.146
238.99
234.834
230.678
226.522
222.366
218.211
214.055
209.899
205.743
201.587
197.431
193.276
189.12
184.964
180.808
176.652
172.497
168.341
164.185
160.029
155.873
151.717
147.562
143.406
139.25
135.094
130.938
126.782
122.626
118.47
114.315
110.159
106.003
101.847
97.6912
93.5354
89.3796
85.2238
81.0681
76.9123
72.7565
68.6007
64.4449
60.2892
56.1334
51.9778
47.8223
43.667
39.5121
35.3578
31.2045
27.0529
22.9035
18.7585
14.6179
10.4877
6.34834
2.19156
419.615
413.51
409.326
403.86
399.128
394.329
389.779
385.284
380.891
376.552
372.266
368.016
363.794
359.593
355.407
351.231
347.062
342.897
338.736
334.577
330.419
326.262
322.105
317.949
313.793
309.637
305.481
301.325
297.169
293.013
288.857
284.701
280.546
276.39
272.234
268.078
263.922
259.766
255.611
251.455
247.299
243.143
238.987
234.831
230.675
226.52
222.364
218.208
214.052
209.896
205.74
201.585
197.429
193.273
189.117
184.961
180.805
176.65
172.494
168.338
164.182
160.026
155.871
151.715
147.559
143.403
139.247
135.091
130.935
126.779
122.624
118.468
114.312
110.156
106
101.844
97.6885
93.5327
89.3769
85.2211
81.0654
76.9096
72.7538
68.598
64.4422
60.2865
56.1307
51.9751
47.8196
43.6643
39.5094
35.3551
31.2018
27.0502
22.9009
18.7558
14.6152
10.4849
6.34569
2.18933
419.64
413.506
409.317
403.852
399.122
394.324
389.773
385.278
380.885
376.546
372.26
368.01
363.789
359.588
355.401
351.225
347.056
342.892
338.731
334.571
330.413
326.256
322.1
317.943
313.787
309.631
305.475
301.319
297.164
293.008
288.852
284.696
280.54
276.384
272.228
268.073
263.917
259.761
255.605
251.449
247.293
243.138
238.982
234.826
230.67
226.514
222.358
218.202
214.047
209.891
205.735
201.579
197.423
193.267
189.112
184.956
180.8
176.644
172.488
168.333
164.177
160.021
155.865
151.709
147.553
143.398
139.242
135.086
130.93
126.774
122.618
118.462
114.306
110.151
105.995
101.839
97.6831
93.5273
89.3715
85.2158
81.06
76.9042
72.7484
68.5926
64.4368
60.2811
56.1253
51.9697
47.8142
43.6589
39.504
35.3497
31.1964
27.0448
22.8955
18.7504
14.6098
10.4792
6.34039
2.18486
419.679
413.501
409.304
403.84
399.112
394.315
389.765
385.27
380.877
376.538
372.252
368.002
363.781
359.58
355.393
351.217
347.048
342.884
338.723
334.563
330.405
326.248
322.092
317.935
313.779
309.623
305.467
301.311
297.156
293
288.844
284.688
280.532
276.376
272.22
268.065
263.909
259.753
255.597
251.441
247.285
243.129
238.974
234.818
230.662
226.506
222.35
218.194
214.039
209.883
205.727
201.571
197.415
193.259
189.104
184.948
180.792
176.636
172.48
168.325
164.169
160.013
155.857
151.701
147.545
143.39
139.234
135.078
130.922
126.766
122.61
118.454
114.298
110.143
105.987
101.831
97.675
93.5192
89.3634
85.2077
81.0519
76.8961
72.7403
68.5845
64.4287
60.273
56.1172
51.9616
47.8061
43.6508
39.4959
35.3416
31.1883
27.0367
22.8874
18.7423
14.6017
10.4707
6.33244
2.17816
419.732
413.493
409.286
403.824
399.1
394.304
389.754
385.259
380.866
376.527
372.241
367.991
363.77
359.569
355.383
351.206
347.037
342.873
338.712
334.553
330.395
326.237
322.081
317.925
313.768
309.612
305.457
301.301
297.145
292.989
288.833
284.677
280.521
276.365
272.21
268.054
263.898
259.742
255.586
251.43
247.275
243.119
238.963
234.807
230.651
226.495
222.339
218.184
214.028
209.872
205.716
201.56
197.404
193.249
189.093
184.937
180.781
176.625
172.47
168.314
164.158
160.002
155.846
151.69
147.535
143.379
139.223
135.067
130.911
126.755
122.599
118.443
114.288
110.132
105.976
101.82
97.6643
93.5084
89.3527
85.1969
81.0411
76.8853
72.7295
68.5737
64.4179
60.2622
56.1065
51.9508
47.7953
43.64
39.4851
35.3308
31.1775
27.0259
22.8766
18.7315
14.5908
10.4594
6.32185
2.16922
419.799
413.483
409.264
403.804
399.085
394.291
389.74
385.245
380.852
376.514
372.228
367.978
363.757
359.556
355.369
351.193
347.024
342.86
338.698
334.539
330.381
326.224
322.067
317.911
313.755
309.599
305.443
301.287
297.131
292.975
288.82
284.664
280.508
276.352
272.196
268.04
263.884
259.729
255.573
251.417
247.261
243.105
238.949
234.793
230.638
226.482
222.326
218.17
214.014
209.858
205.703
201.547
197.391
193.235
189.079
184.923
180.768
176.612
172.456
168.3
164.144
159.989
155.833
151.677
147.521
143.365
139.209
135.054
130.898
126.742
122.586
118.43
114.274
110.118
105.962
101.807
97.6508
93.495
89.3392
85.1834
81.0276
76.8718
72.716
68.5602
64.4044
60.2487
56.093
51.9373
47.7818
43.6265
39.4716
35.3173
31.164
27.0124
22.8631
18.7179
14.5773
10.4453
6.30861
2.15804
419.881
413.47
409.237
403.78
399.066
394.274
389.724
385.229
380.836
376.497
372.212
367.962
363.74
359.539
355.353
351.177
347.008
342.843
338.682
334.523
330.365
326.208
322.051
317.895
313.739
309.583
305.427
301.271
297.115
292.959
288.803
284.647
280.492
276.336
272.18
268.024
263.868
259.712
255.557
251.401
247.245
243.089
238.933
234.777
230.621
226.466
222.31
218.154
213.998
209.842
205.686
201.531
197.375
193.219
189.063
184.907
180.751
176.596
172.44
168.284
164.128
159.972
155.817
151.661
147.505
143.349
139.193
135.037
130.881
126.726
122.57
118.414
114.258
110.102
105.946
101.79
97.6346
93.4788
89.323
85.1672
81.0114
76.8556
72.6998
68.544
64.3883
60.2325
56.0768
51.9211
47.7656
43.6103
39.4554
35.3011
31.1479
26.9962
22.847
18.7017
14.5611
10.4283
6.29274
2.1446
419.979
413.452
409.205
403.753
399.044
394.254
389.704
385.21
380.817
376.478
372.192
367.943
363.721
359.52
355.334
351.158
346.989
342.825
338.663
334.504
330.346
326.189
322.032
317.876
313.72
309.564
305.408
301.252
297.096
292.94
288.784
284.629
280.473
276.317
272.161
268.005
263.849
259.693
255.538
251.382
247.226
243.07
238.914
234.758
230.603
226.447
222.291
218.135
213.979
209.823
205.667
201.512
197.356
193.2
189.044
184.888
180.733
176.577
172.421
168.265
164.109
159.954
155.798
151.642
147.486
143.33
139.174
135.018
130.863
126.707
122.551
118.395
114.239
110.083
105.927
101.771
97.6157
93.4599
89.3041
85.1483
80.9925
76.8367
72.6809
68.5251
64.3694
60.2136
56.0579
51.9022
47.7467
43.5914
39.4365
35.2823
31.129
26.9774
22.8281
18.6828
14.5421
10.4086
6.27424
2.1289
420.095
413.431
409.169
403.722
399.019
394.232
389.682
385.188
380.795
376.456
372.171
367.921
363.7
359.499
355.313
351.136
346.967
342.803
338.642
334.482
330.325
326.167
322.011
317.854
313.698
309.542
305.386
301.23
297.075
292.919
288.763
284.607
280.451
276.295
272.139
267.984
263.828
259.672
255.516
251.36
247.204
243.049
238.893
234.737
230.581
226.425
222.269
218.113
213.958
209.802
205.646
201.49
197.334
193.178
189.023
184.867
180.711
176.555
172.399
168.244
164.088
159.932
155.776
151.62
147.464
143.309
139.153
134.997
130.841
126.685
122.529
118.373
114.217
110.062
105.906
101.75
97.5941
93.4383
89.2825
85.1267
80.9709
76.8151
72.6593
68.5036
64.3478
60.192
56.0363
51.8807
47.7251
43.5699
39.415
35.2607
31.1074
26.9558
22.8066
18.6611
14.5204
10.3862
6.25313
2.11092
420.23
413.403
409.128
403.687
398.992
394.207
389.657
385.163
380.77
376.432
372.146
367.897
363.675
359.475
355.288
351.112
346.943
342.779
338.617
334.458
330.3
326.143
321.987
317.83
313.674
309.518
305.362
301.206
297.05
292.894
288.739
284.583
280.427
276.271
272.115
267.959
263.803
259.648
255.492
251.336
247.18
243.024
238.868
234.713
230.557
226.401
222.245
218.089
213.933
209.777
205.622
201.466
197.31
193.154
188.998
184.843
180.687
176.531
172.375
168.219
164.064
159.908
155.752
151.596
147.44
143.284
139.128
134.973
130.817
126.661
122.505
118.349
114.193
110.037
105.881
101.726
97.5698
93.414
89.2582
85.1024
80.9466
76.7909
72.6351
68.4793
64.3235
60.1677
56.012
51.8564
47.7009
43.5456
39.3907
35.2364
31.0832
26.9315
22.7823
18.6368
14.4961
10.361
6.22939
2.09064
420.386
413.369
409.082
403.649
398.96
394.179
389.629
385.135
380.742
376.404
372.119
367.869
363.648
359.448
355.261
351.085
346.916
342.752
338.591
334.431
330.273
326.116
321.96
317.803
313.647
309.491
305.335
301.179
297.023
292.867
288.712
284.556
280.4
276.244
272.088
267.932
263.776
259.621
255.465
251.309
247.153
242.997
238.841
234.686
230.53
226.374
222.218
218.062
213.906
209.75
205.595
201.439
197.283
193.127
188.971
184.816
180.66
176.504
172.348
168.192
164.037
159.881
155.725
151.569
147.413
143.257
139.101
134.946
130.79
126.634
122.478
118.322
114.166
110.01
105.854
101.699
97.5428
93.387
89.2312
85.0755
80.9197
76.7639
72.6081
68.4523
64.2965
60.1408
55.985
51.8294
47.6739
43.5186
39.3637
35.2095
31.0562
26.9046
22.7554
18.6098
14.469
10.3332
6.20305
2.06805
420.564
413.326
409.031
403.608
398.926
394.148
389.598
385.105
380.712
376.374
372.089
367.84
363.619
359.418
355.232
351.056
346.886
342.722
338.561
334.402
330.244
326.087
321.93
317.774
313.617
309.461
305.305
301.15
296.994
292.838
288.682
284.526
280.37
276.214
272.058
267.903
263.747
259.591
255.435
251.279
247.123
242.968
238.812
234.656
230.5
226.344
222.188
218.032
213.877
209.721
205.565
201.409
197.253
193.097
188.942
184.786
180.63
176.474
172.318
168.163
164.007
159.851
155.695
151.539
147.384
143.228
139.072
134.916
130.76
126.604
122.448
118.292
114.137
109.981
105.825
101.669
97.5132
93.3574
89.2016
85.0458
80.89
76.7342
72.5784
68.4226
64.2669
60.1111
55.9554
51.7997
47.6442
43.489
39.3341
35.1798
31.0266
26.8749
22.7258
18.5801
14.4393
10.3027
6.17411
2.04311
420.768
413.274
408.975
403.564
398.889
394.114
389.564
385.071
380.678
376.341
372.056
367.807
363.586
359.385
355.199
351.023
346.854
342.69
338.529
334.369
330.211
326.054
321.898
317.741
313.585
309.429
305.273
301.117
296.961
292.805
288.65
284.494
280.338
276.182
272.026
267.87
263.714
259.559
255.403
251.247
247.091
242.935
238.779
234.624
230.468
226.312
222.156
218
213.844
209.688
205.533
201.377
197.221
193.065
188.909
184.754
180.598
176.442
172.286
168.13
163.975
159.819
155.663
151.507
147.351
143.195
139.04
134.884
130.728
126.572
122.416
118.26
114.104
109.948
105.793
101.637
97.4809
93.3251
89.1693
85.0135
80.8577
76.7019
72.5461
68.3903
64.2346
60.0788
55.9231
51.7674
47.6119
43.4567
39.3018
35.1475
30.9943
26.8427
22.6935
18.5478
14.4069
10.2697
6.14265
2.01586
421.002
413.209
408.915
403.517
398.849
394.078
389.527
385.036
380.643
376.306
372.021
367.772
363.551
359.351
355.165
350.989
346.82
342.655
338.494
334.335
330.177
326.02
321.863
317.707
313.55
309.394
305.239
301.083
296.927
292.771
288.615
284.459
280.303
276.147
271.991
267.836
263.68
259.524
255.368
251.212
247.056
242.901
238.745
234.589
230.433
226.277
222.121
217.966
213.81
209.654
205.498
201.342
197.186
193.031
188.875
184.719
180.563
176.407
172.252
168.096
163.94
159.784
155.628
151.472
147.317
143.161
139.005
134.849
130.693
126.537
122.381
118.225
114.07
109.914
105.758
101.602
97.4462
93.2904
89.1346
84.9788
80.823
76.6672
72.5115
68.3557
64.1999
60.0441
55.8884
51.7328
47.5773
43.422
39.2671
35.1129
30.9597
26.8081
22.6589
18.5131
14.3722
10.2343
6.10888
1.98646
421.272
413.131
408.851
403.469
398.806
394.039
389.488
384.997
380.605
376.268
371.984
367.735
363.514
359.314
355.128
350.952
346.783
342.618
338.457
334.298
330.14
325.983
321.826
317.67
313.514
309.358
305.202
301.046
296.89
292.734
288.578
284.422
280.267
276.111
271.955
267.799
263.643
259.487
255.331
251.176
247.02
242.864
238.708
234.552
230.396
226.241
222.085
217.929
213.773
209.617
205.461
201.305
197.15
192.994
188.838
184.682
180.526
176.371
172.215
168.059
163.903
159.747
155.592
151.436
147.28
143.124
138.968
134.812
130.656
126.501
122.345
118.189
114.033
109.877
105.721
101.565
97.4096
93.2538
89.098
84.9422
80.7864
76.6306
72.4748
68.319
64.1632
60.0075
55.8518
51.6961
47.5406
43.3854
39.2305
35.0762
30.923
26.7714
22.6223
18.4764
14.3354
10.197
6.07304
1.95504
421.576
413.035
408.783
403.419
398.761
393.998
389.447
384.957
380.565
376.229
371.945
367.696
363.476
359.275
355.089
350.913
346.745
342.58
338.419
334.26
330.102
325.945
321.788
317.632
313.475
309.319
305.163
301.008
296.852
292.696
288.54
284.384
280.228
276.072
271.916
267.761
263.605
259.449
255.293
251.137
246.981
242.826
238.67
234.514
230.358
226.202
222.046
217.89
213.735
209.579
205.423
201.267
197.111
192.955
188.8
184.644
180.488
176.332
172.176
168.021
163.865
159.709
155.553
151.397
147.242
143.086
138.93
134.774
130.618
126.462
122.306
118.15
113.995
109.839
105.683
101.527
97.3712
93.2154
89.0596
84.9038
80.748
76.5922
72.4364
68.2806
64.1249
59.9691
55.8134
51.6578
47.5023
43.347
39.1921
35.0379
30.8847
26.7331
22.584
18.4381
14.2971
10.1582
6.03532
1.92178
421.913
412.924
408.719
403.372
398.717
393.959
389.408
384.92
380.527
376.192
371.908
367.659
363.439
359.239
355.053
350.877
346.708
342.544
338.383
334.223
330.065
325.908
321.752
317.595
313.439
309.283
305.127
300.971
296.815
292.659
288.503
284.348
280.192
276.036
271.88
267.724
263.568
259.413
255.257
251.101
246.945
242.789
238.633
234.477
230.322
226.166
222.01
217.854
213.698
209.542
205.387
201.231
197.075
192.919
188.763
184.607
180.452
176.296
172.14
167.984
163.828
159.673
155.517
151.361
147.205
143.049
138.893
134.738
130.582
126.426
122.27
118.114
113.958
109.802
105.646
101.491
97.3348
93.179
89.0232
84.8674
80.7116
76.5558
72.4
68.2442
64.0885
59.9327
55.777
51.6214
47.4659
43.3106
39.1557
35.0015
30.8483
26.6968