/*--------------------------------*- C++ -*----------------------------------*\
| =========                 |                                                 |
| \\      /  F ield         | OpenFOAM: The Open Source CFD Toolbox           |
|  \\    /   O peration     | Version:  5.x                                   |
|   \\  /    A nd           | Web:      www.OpenFOAM.org                      |
|    \\/     M anipulation  |                                                 |
\*---------------------------------------------------------------------------*/
FoamFile
{
    version     2.0;
    format      ascii;
    class       volScalarField;
    location    "0.5";
    object      pB;
}
// * * * * * * * * * * * * * * * * * * * * * * * * * * * * * * * * * * * * * //

dimensions      [1 1 -3 0 0 -1 0];

internalField   nonuniform List<scalar> 
4000
(
18.7673
40.7621
51.1425
53.1307
50.6128
45.3219
38.9639
32.4494
26.371
20.9949
16.4257
12.6526
9.6087
7.19848
5.31944
3.87316
2.77175
1.94031
1.31726
0.853164
0.509123
0.255005
0.0678703
-0.069617
-0.170419
-0.244239
-0.29821
-0.33765
-0.366419
-0.387415
-0.4027
-0.413849
-0.421945
-0.427845
-0.43211
-0.435217
-0.437448
-0.439072
-0.440227
-0.441066
-0.441653
-0.44208
-0.442366
-0.442572
-0.442701
-0.442791
-0.442837
-0.442866
-0.442871
-0.442872
-0.442858
-0.442845
-0.442819
-0.442795
-0.442761
-0.442731
-0.442694
-0.442661
-0.442622
-0.442587
-0.442543
-0.442503
-0.442457
-0.442416
-0.442369
-0.442326
-0.442278
-0.442231
-0.442178
-0.442124
-0.442055
-0.441977
-0.441874
-0.441745
-0.44157
-0.441342
-0.441032
-0.440617
-0.440054
-0.439295
-0.438263
-0.436867
-0.434973
-0.432406
-0.428929
-0.424234
-0.417921
-0.409503
-0.398402
-0.384008
-0.3658
-0.343602
-0.318088
-0.291624
-0.269658
-0.262151
-0.283355
-0.342974
-0.411187
-0.349479
20.6809
40.8934
50.6774
52.6345
50.1563
44.9534
38.6741
32.2298
26.208
20.8779
16.3448
12.5998
9.5774
7.18336
5.31635
3.8789
2.78393
1.95718
1.33752
0.875868
0.533591
0.280752
0.0945482
-0.0422622
-0.14257
-0.21603
-0.269736
-0.308985
-0.337612
-0.358506
-0.373714
-0.384808
-0.392863
-0.398734
-0.402978
-0.40607
-0.40829
-0.409905
-0.411054
-0.411888
-0.412471
-0.412895
-0.41318
-0.413385
-0.413513
-0.413602
-0.413648
-0.413677
-0.413682
-0.413683
-0.413668
-0.413655
-0.413629
-0.413604
-0.41357
-0.41354
-0.413502
-0.41347
-0.41343
-0.413396
-0.413352
-0.413312
-0.413267
-0.413226
-0.413179
-0.413136
-0.413088
-0.413042
-0.412989
-0.412935
-0.412866
-0.412789
-0.412685
-0.412556
-0.412382
-0.412155
-0.411845
-0.411433
-0.410872
-0.410117
-0.40909
-0.407701
-0.405815
-0.403262
-0.399801
-0.39513
-0.388852
-0.380485
-0.369459
-0.355179
-0.337138
-0.315177
-0.289975
-0.263851
-0.242048
-0.233868
-0.251909
-0.302305
-0.353085
-0.286075
21.8693
40.9602
50.0522
51.914
49.4642
44.3682
38.1982
31.8571
25.9233
20.667
16.1938
12.4966
9.51155
7.14635
5.30125
3.88024
2.79751
1.97981
1.3668
0.910016
0.571299
0.321067
0.136774
0.00136005
-0.097925
-0.170637
-0.223794
-0.262642
-0.290974
-0.311654
-0.326704
-0.337684
-0.345655
-0.351464
-0.355664
-0.358724
-0.360921
-0.362519
-0.363655
-0.36448
-0.365056
-0.365474
-0.365755
-0.365957
-0.366083
-0.366172
-0.366217
-0.366246
-0.36625
-0.36625
-0.366235
-0.366221
-0.366194
-0.36617
-0.366135
-0.366105
-0.366067
-0.366035
-0.365995
-0.36596
-0.365917
-0.365878
-0.365833
-0.365792
-0.365746
-0.365704
-0.365656
-0.365611
-0.365558
-0.365504
-0.365435
-0.365357
-0.365254
-0.365126
-0.364952
-0.364727
-0.36442
-0.364012
-0.363456
-0.362708
-0.361692
-0.360317
-0.35845
-0.355922
-0.352497
-0.347874
-0.341663
-0.333392
-0.322502
-0.308417
-0.290647
-0.269049
-0.244281
-0.218549
-0.196722
-0.187077
-0.199991
-0.237466
-0.267835
-0.194955
22.0911
40.6981
49.1422
50.866
48.4464
43.4854
37.4647
31.2684
25.4615
20.3131
15.9287
12.3031
9.37457
7.05328
5.24178
3.84618
2.78248
1.97893
1.37637
0.927276
0.594206
0.348122
0.166871
0.0336867
-0.0639655
-0.13548
-0.187761
-0.225968
-0.253831
-0.274167
-0.288966
-0.299762
-0.307599
-0.313311
-0.317441
-0.320449
-0.32261
-0.324181
-0.325297
-0.326106
-0.32667
-0.32708
-0.327355
-0.327553
-0.327676
-0.327763
-0.327807
-0.327836
-0.327839
-0.327838
-0.327822
-0.327807
-0.32778
-0.327755
-0.32772
-0.327689
-0.327651
-0.327618
-0.327579
-0.327544
-0.327501
-0.327463
-0.327418
-0.327378
-0.327332
-0.327291
-0.327245
-0.3272
-0.327147
-0.327093
-0.327025
-0.326948
-0.326844
-0.326717
-0.326545
-0.326322
-0.32602
-0.325618
-0.325072
-0.324336
-0.323336
-0.321984
-0.320147
-0.317659
-0.314289
-0.309743
-0.303638
-0.295515
-0.284833
-0.271037
-0.253659
-0.232565
-0.208373
-0.183094
-0.161045
-0.149096
-0.15487
-0.175912
-0.182876
-0.10129
21.5902
40.0041
47.9215
49.4967
47.1169
42.3161
36.4814
30.4689
24.8258
19.8181
15.5504
12.0195
9.16616
6.90351
5.13708
3.77569
2.73771
1.95334
1.365
0.926396
0.601048
0.360643
0.183563
0.0534362
-0.041976
-0.11185
-0.162928
-0.200255
-0.227474
-0.24734
-0.261795
-0.272339
-0.279994
-0.285573
-0.289606
-0.292544
-0.294654
-0.296188
-0.297276
-0.298065
-0.298614
-0.299011
-0.299278
-0.299471
-0.29959
-0.299675
-0.299717
-0.299745
-0.299747
-0.299745
-0.299728
-0.299712
-0.299684
-0.299658
-0.299623
-0.299591
-0.299552
-0.299519
-0.299479
-0.299445
-0.299403
-0.299365
-0.299321
-0.299282
-0.299238
-0.299197
-0.299151
-0.299108
-0.299055
-0.299002
-0.298934
-0.298857
-0.298755
-0.298629
-0.298459
-0.29824
-0.297944
-0.297551
-0.297016
-0.296297
-0.29532
-0.293998
-0.292203
-0.289771
-0.286477
-0.282035
-0.276075
-0.268151
-0.257744
-0.244325
-0.227451
-0.20699
-0.18349
-0.158705
-0.136249
-0.121328
-0.118554
-0.121239
-0.10361
-0.0141172
20.6568
38.8803
46.3831
47.8211
45.4965
40.8799
35.2652
29.4726
24.0284
19.1927
15.0685
11.6544
8.89422
6.70449
4.99425
3.67564
2.66992
1.90969
1.33929
0.913937
0.598364
0.365151
0.193355
0.0671044
-0.0254676
-0.0932606
-0.142815
-0.179027
-0.205431
-0.224701
-0.238721
-0.248947
-0.25637
-0.261781
-0.265693
-0.268542
-0.270588
-0.272074
-0.273127
-0.27389
-0.27442
-0.274803
-0.27506
-0.275245
-0.27536
-0.275441
-0.275482
-0.275508
-0.275509
-0.275506
-0.275487
-0.27547
-0.275441
-0.275414
-0.275378
-0.275345
-0.275306
-0.275272
-0.275233
-0.275198
-0.275157
-0.27512
-0.275077
-0.275039
-0.274995
-0.274956
-0.274911
-0.274868
-0.274817
-0.274764
-0.274697
-0.274621
-0.27452
-0.274395
-0.274229
-0.274015
-0.273727
-0.273344
-0.272825
-0.272127
-0.271178
-0.269895
-0.268152
-0.265791
-0.262594
-0.258285
-0.252506
-0.244831
-0.234766
-0.221808
-0.20554
-0.185824
-0.16312
-0.138867
-0.115882
-0.0975611
-0.085488
-0.0692178
-0.0272635
0.0663184
19.4715
37.3665
44.5303
45.8525
43.6022
39.1933
33.8299
28.291
23.0786
18.4444
14.4892
11.2132
8.56327
6.46015
4.81684
3.54932
2.58221
1.85092
1.30207
0.892686
0.588898
0.364359
0.198939
0.0773676
-0.0117747
-0.0770553
-0.124771
-0.159637
-0.185057
-0.203609
-0.217105
-0.226948
-0.234092
-0.2393
-0.243066
-0.245808
-0.247776
-0.249205
-0.250217
-0.250949
-0.251456
-0.251821
-0.252066
-0.252243
-0.252352
-0.25243
-0.252468
-0.252492
-0.252491
-0.252487
-0.252467
-0.252448
-0.252418
-0.25239
-0.252353
-0.25232
-0.252279
-0.252245
-0.252205
-0.252171
-0.25213
-0.252094
-0.252053
-0.252016
-0.251974
-0.251935
-0.251892
-0.25185
-0.2518
-0.251747
-0.251681
-0.251606
-0.251506
-0.251384
-0.251222
-0.251014
-0.250735
-0.250366
-0.249865
-0.249192
-0.248278
-0.247041
-0.245362
-0.243087
-0.240007
-0.235857
-0.230298
-0.222921
-0.21326
-0.200843
-0.185276
-0.16641
-0.144598
-0.120928
-0.0973723
-0.0754923
-0.0539945
-0.0192562
0.0453435
0.13828
18.1409
35.5154
42.3757
43.6044
41.4492
37.2709
32.1879
26.9341
21.9842
17.5793
13.8172
10.6992
8.17598
6.17251
4.60639
3.39793
2.47554
1.77783
1.25402
0.863225
0.573166
0.358742
0.20076
0.0846484
-0.000489895
-0.0628372
-0.108405
-0.141703
-0.165976
-0.183691
-0.196576
-0.205973
-0.212793
-0.217766
-0.221361
-0.223978
-0.225856
-0.227219
-0.228182
-0.228878
-0.229358
-0.229704
-0.229935
-0.230102
-0.230204
-0.230277
-0.230312
-0.230334
-0.230332
-0.230326
-0.230304
-0.230284
-0.230252
-0.230223
-0.230185
-0.230151
-0.230109
-0.230075
-0.230035
-0.23
-0.229961
-0.229925
-0.229885
-0.22985
-0.229809
-0.229772
-0.229729
-0.229689
-0.22964
-0.229588
-0.229523
-0.229449
-0.229351
-0.229232
-0.229075
-0.228875
-0.228607
-0.228252
-0.227773
-0.227129
-0.226255
-0.225073
-0.223468
-0.221294
-0.218351
-0.214388
-0.209082
-0.202051
-0.192856
-0.181056
-0.166278
-0.148359
-0.127532
-0.104522
-0.0804479
-0.0551165
-0.0246437
0.0270824
0.111344
0.199311
16.7301
33.3817
39.9391
41.0928
39.0532
35.1275
30.352
25.4122
20.7532
16.6036
13.057
10.1161
7.73497
5.84352
4.36435
3.22253
2.35069
1.691
1.19558
0.825871
0.551409
0.348486
0.198964
0.0890661
0.00848508
-0.0505231
-0.093648
-0.12516
-0.148129
-0.164892
-0.177084
-0.185976
-0.192428
-0.197132
-0.200533
-0.203009
-0.204785
-0.206072
-0.20698
-0.207635
-0.208086
-0.20841
-0.208625
-0.20878
-0.208876
-0.208943
-0.208974
-0.208994
-0.208989
-0.208982
-0.208958
-0.208936
-0.208903
-0.208873
-0.208833
-0.208798
-0.208756
-0.20872
-0.20868
-0.208646
-0.208607
-0.208573
-0.208534
-0.2085
-0.208461
-0.208425
-0.208384
-0.208344
-0.208296
-0.208246
-0.208182
-0.208109
-0.208014
-0.207899
-0.207748
-0.207556
-0.2073
-0.206963
-0.206508
-0.205898
-0.205069
-0.20395
-0.202429
-0.20037
-0.197583
-0.193833
-0.188816
-0.182176
-0.173504
-0.162391
-0.148484
-0.131603
-0.111858
-0.0896135
-0.0651753
-0.0367618
0.0017084
0.0680575
0.168034
0.247706
15.2788
31.0166
37.2458
38.3359
36.4309
32.7785
28.3354
23.7363
19.3944
15.5242
12.2141
9.46781
7.24325
5.47543
4.09239
3.02436
2.20859
1.59112
1.12727
0.781035
0.52395
0.333848
0.193762
0.0907954
0.0152985
-0.0399847
-0.0803845
-0.109905
-0.131421
-0.147122
-0.158542
-0.16687
-0.172913
-0.177319
-0.180504
-0.182823
-0.184484
-0.185687
-0.186535
-0.187145
-0.187563
-0.187862
-0.18806
-0.188203
-0.188289
-0.188351
-0.188378
-0.188394
-0.188388
-0.188378
-0.188353
-0.188329
-0.188295
-0.188263
-0.188222
-0.188185
-0.188142
-0.188106
-0.188066
-0.188032
-0.187994
-0.187961
-0.187923
-0.18789
-0.187853
-0.187819
-0.187779
-0.18774
-0.187694
-0.187645
-0.187582
-0.187511
-0.187419
-0.187308
-0.187163
-0.186981
-0.186738
-0.186421
-0.185993
-0.18542
-0.184643
-0.183593
-0.182168
-0.180237
-0.177625
-0.174111
-0.169416
-0.163209
-0.155114
-0.144751
-0.13179
-0.116032
-0.0974693
-0.0761302
-0.0515865
-0.0207026
0.0243323
0.102256
0.213439
0.282664
13.8099
28.465
34.3232
35.3539
33.5998
30.2401
26.152
21.9178
17.9171
14.3482
11.294
8.75869
6.70412
5.07073
3.79238
2.80483
2.05028
1.47898
1.0497
0.729174
0.491143
0.315108
0.185379
0.0900202
0.0201041
-0.0310911
-0.0685004
-0.0958355
-0.115757
-0.130295
-0.140867
-0.148578
-0.154172
-0.158252
-0.1612
-0.163346
-0.164882
-0.165993
-0.166774
-0.167335
-0.167717
-0.16799
-0.16817
-0.168298
-0.168375
-0.16843
-0.168453
-0.168465
-0.168457
-0.168445
-0.168419
-0.168393
-0.168356
-0.168323
-0.168281
-0.168243
-0.168199
-0.168162
-0.168121
-0.168088
-0.168051
-0.168019
-0.167982
-0.167951
-0.167915
-0.167882
-0.167844
-0.167807
-0.167761
-0.167714
-0.167653
-0.167584
-0.167495
-0.167389
-0.167252
-0.167079
-0.166852
-0.166556
-0.166158
-0.165626
-0.164906
-0.163933
-0.162611
-0.160822
-0.158402
-0.155149
-0.150805
-0.14507
-0.137598
-0.128044
-0.116097
-0.101543
-0.0842696
-0.0640074
-0.0397088
-0.00717034
0.0426411
0.128626
0.246279
0.304044
12.3361
25.7646
31.1996
32.1685
30.5784
27.5287
23.8162
19.9689
16.331
13.0836
10.3028
7.99344
6.12116
4.63215
3.46636
2.56548
1.87693
1.35545
0.963495
0.670781
0.453364
0.292557
0.174042
0.0869234
0.0230509
-0.023718
-0.0578899
-0.0828595
-0.101055
-0.114333
-0.12399
-0.131033
-0.136142
-0.139869
-0.14256
-0.14452
-0.14592
-0.146932
-0.147641
-0.148149
-0.148493
-0.148738
-0.148897
-0.14901
-0.149077
-0.149124
-0.149142
-0.149151
-0.14914
-0.149126
-0.149098
-0.14907
-0.149032
-0.148997
-0.148953
-0.148914
-0.148869
-0.148832
-0.148791
-0.148758
-0.148721
-0.148691
-0.148656
-0.148626
-0.148591
-0.14856
-0.148523
-0.148487
-0.148444
-0.148397
-0.148338
-0.148272
-0.148186
-0.148086
-0.147956
-0.147796
-0.147585
-0.147312
-0.146947
-0.146459
-0.145799
-0.144909
-0.143701
-0.142065
-0.139854
-0.136883
-0.132919
-0.127689
-0.120885
-0.112191
-0.101322
-0.0880507
-0.0721766
-0.0531905
-0.0295624
0.00366029
0.0562134
0.146488
0.265903
0.312173
10.8643
22.9467
27.9023
28.8016
27.3857
24.6614
21.3429
17.9022
14.6465
11.7385
9.24707
7.17708
5.49824
4.1626
3.11657
2.30796
1.68977
1.22146
0.869383
0.606391
0.411023
0.266509
0.159997
0.0816983
0.0242949
-0.0177364
-0.0484437
-0.0708824
-0.0872314
-0.0991635
-0.10784
-0.11417
-0.11876
-0.122109
-0.124527
-0.126286
-0.127542
-0.128448
-0.12908
-0.129532
-0.129835
-0.13005
-0.130187
-0.130285
-0.130341
-0.13038
-0.130392
-0.130397
-0.130383
-0.130367
-0.130337
-0.130307
-0.130268
-0.130231
-0.130186
-0.130145
-0.1301
-0.130061
-0.130021
-0.129987
-0.129952
-0.129922
-0.129889
-0.12986
-0.129827
-0.129798
-0.129762
-0.129728
-0.129685
-0.12964
-0.129584
-0.12952
-0.129439
-0.129344
-0.129223
-0.129075
-0.128883
-0.128634
-0.128303
-0.127863
-0.127269
-0.126468
-0.12538
-0.12391
-0.121921
-0.119252
-0.115693
-0.111001
-0.104902
-0.0971173
-0.0873829
-0.0754691
-0.0611086
-0.0436176
-0.0211377
0.0116991
0.0648236
0.15554
0.272232
0.30774
9.39784
20.0367
24.4576
25.276
24.0414
21.6556
18.7474
15.7304
12.8741
10.3215
8.13351
6.31491
4.83945
3.66525
2.74538
2.0341
1.49018
1.07805
0.768133
0.53659
0.364563
0.237305
0.143508
0.0745541
0.0240045
-0.013008
-0.0400456
-0.0598038
-0.0741979
-0.0847044
-0.092343
-0.0979184
-0.10196
-0.104909
-0.107037
-0.108585
-0.109687
-0.110481
-0.111032
-0.111424
-0.111685
-0.111868
-0.111983
-0.112064
-0.112108
-0.112138
-0.112145
-0.112145
-0.112128
-0.112109
-0.112078
-0.112047
-0.112005
-0.111966
-0.11192
-0.111878
-0.111832
-0.111793
-0.111752
-0.111719
-0.111685
-0.111656
-0.111624
-0.111597
-0.111566
-0.111537
-0.111504
-0.11147
-0.111429
-0.111386
-0.111332
-0.11127
-0.111194
-0.111105
-0.110994
-0.11086
-0.110686
-0.110464
-0.110169
-0.10978
-0.109255
-0.108548
-0.107589
-0.106293
-0.104542
-0.102192
-0.0990593
-0.0949343
-0.0895765
-0.0827419
-0.0741946
-0.0637085
-0.0509759
-0.0352091
-0.0143825
0.0169556
0.0684533
0.155857
0.265699
0.291713
7.93782
17.0553
20.8899
21.6138
20.5655
18.5293
16.0452
13.4671
11.025
8.84155
6.96926
5.41251
4.14911
3.14341
2.35533
1.74581
1.27962
0.926309
0.660576
0.462006
0.314464
0.205312
0.12486
0.0657148
0.0223595
-0.00938526
-0.0325715
-0.0495168
-0.0618599
-0.0708712
-0.0774216
-0.0822052
-0.0856718
-0.0882022
-0.0900249
-0.0913515
-0.0922928
-0.0929697
-0.0934352
-0.0937655
-0.0939813
-0.0941312
-0.0942224
-0.094286
-0.0943174
-0.0943388
-0.094339
-0.0943352
-0.0943149
-0.0942934
-0.0942598
-0.094227
-0.0941841
-0.0941435
-0.0940957
-0.0940526
-0.0940058
-0.0939661
-0.0939255
-0.0938928
-0.0938589
-0.0938313
-0.0938009
-0.0937749
-0.0937453
-0.0937186
-0.0936862
-0.0936545
-0.093615
-0.0935732
-0.0935211
-0.0934631
-0.0933913
-0.0933095
-0.0932086
-0.0930881
-0.0929344
-0.0927403
-0.0924842
-0.0921478
-0.0916955
-0.0910882
-0.0902643
-0.0891516
-0.0876485
-0.0856329
-0.0829477
-0.0794141
-0.0748277
-0.0689808
-0.0616669
-0.0526733
-0.0416792
-0.0278656
-0.00919792
0.0195426
0.0672886
0.147858
0.247176
0.265279
6.48434
14.0192
17.2217
17.8374
16.9781
15.3005
13.2522
11.1256
9.11037
7.30785
5.76167
4.47569
3.43176
2.60058
1.94911
1.44514
1.05963
0.76741
0.547592
0.383306
0.261232
0.170919
0.104355
0.055418
0.0195501
-0.00671242
-0.0258908
-0.0399094
-0.0501187
-0.0575749
-0.0629936
-0.0669537
-0.0698219
-0.0719168
-0.0734228
-0.0745187
-0.0752926
-0.0758476
-0.0762248
-0.0764905
-0.0766599
-0.0767758
-0.0768424
-0.0768879
-0.0769063
-0.0769181
-0.0769117
-0.076903
-0.0768795
-0.0768554
-0.0768198
-0.0767852
-0.076741
-0.0766988
-0.0766496
-0.0766055
-0.076558
-0.0765178
-0.0764772
-0.0764447
-0.0764116
-0.076385
-0.076356
-0.0763314
-0.0763032
-0.0762779
-0.0762469
-0.0762166
-0.0761787
-0.0761386
-0.0760889
-0.0760343
-0.0759677
-0.0758933
-0.0758028
-0.0756972
-0.0755644
-0.0753992
-0.0751832
-0.0749019
-0.0745253
-0.0740213
-0.0733382
-0.0724166
-0.0711719
-0.0695042
-0.0672832
-0.0643623
-0.0605735
-0.055746
-0.0497057
-0.0422627
-0.0331098
-0.0214666
-0.00543831
0.0196731
0.0617073
0.132275
0.217909
0.229791
5.03675
10.9421
13.4739
13.9683
13.2995
11.9877
10.3847
8.71998
7.14185
5.72985
4.51832
3.51043
2.69207
2.04037
1.52949
1.13421
0.831811
0.602574
0.430107
0.301193
0.205401
0.134536
0.0823087
0.0439126
0.0157756
-0.00482672
-0.0198674
-0.0308647
-0.0388717
-0.044723
-0.0489738
-0.0520839
-0.0543348
-0.0559801
-0.0571594
-0.058017
-0.0586181
-0.0590475
-0.0593336
-0.0595329
-0.0596545
-0.0597354
-0.0597767
-0.0598036
-0.0598086
-0.0598104
-0.059797
-0.0597832
-0.0597565
-0.0597297
-0.0596922
-0.0596558
-0.0596102
-0.0595667
-0.0595163
-0.0594711
-0.059423
-0.0593825
-0.0593418
-0.0593096
-0.0592772
-0.0592515
-0.0592238
-0.0592006
-0.0591738
-0.0591497
-0.0591202
-0.0590913
-0.059055
-0.0590166
-0.0589695
-0.0589185
-0.0588574
-0.0587907
-0.0587112
-0.0586209
-0.0585098
-0.0583746
-0.0582
-0.0579757
-0.0576772
-0.05728
-0.0567423
-0.056018
-0.0550402
-0.0537313
-0.0519885
-0.049698
-0.0467282
-0.0429463
-0.0382131
-0.0323706
-0.0251501
-0.0158721
-0.00291371
0.0176533
0.0522599
0.110109
0.179448
0.186737
3.59401
7.83541
9.66596
10.0277
9.55002
8.60929
7.45908
6.26419
5.13118
4.11719
3.24697
2.52288
1.93486
1.46654
1.09936
0.815226
0.597852
0.433071
0.309083
0.216394
0.147527
0.0965863
0.0590516
0.0314572
0.0112426
-0.00355952
-0.0143605
-0.022262
-0.0280126
-0.03222
-0.0352745
-0.0375139
-0.0391321
-0.040317
-0.0411614
-0.041775
-0.042199
-0.0424997
-0.0426927
-0.0428241
-0.0428967
-0.042942
-0.0429574
-0.0429653
-0.0429566
-0.0429481
-0.0429274
-0.0429084
-0.0428782
-0.0428488
-0.0428093
-0.0427712
-0.0427244
-0.0426796
-0.0426281
-0.0425819
-0.0425335
-0.0424926
-0.042452
-0.04242
-0.0423883
-0.0423635
-0.0423371
-0.0423151
-0.0422896
-0.0422668
-0.0422386
-0.042211
-0.0421763
-0.0421398
-0.0420953
-0.0420482
-0.0419928
-0.0419341
-0.0418661
-0.0417916
-0.0417027
-0.0415983
-0.0414663
-0.0413003
-0.0410818
-0.040794
-0.0404054
-0.0398834
-0.039179
-0.0382374
-0.0369838
-0.0353375
-0.0332036
-0.0304877
-0.0270883
-0.0228867
-0.0176738
-0.0109239
-0.00139441
0.0138706
0.0396449
0.0825866
0.133589
0.137703
2.15485
4.7087
5.81585
6.03646
5.74989
5.18399
4.49175
3.77247
3.0903
2.47967
1.95552
1.51934
1.16507
0.882908
0.661657
0.490438
0.359472
0.260208
0.185511
0.129663
0.0881823
0.05751
0.0349224
0.0183179
0.00616363
-0.00273749
-0.00922517
-0.0139776
-0.0174328
-0.0199681
-0.0218058
-0.0231596
-0.024134
-0.0248504
-0.0253542
-0.0257194
-0.0259633
-0.026133
-0.0262313
-0.0262938
-0.0263167
-0.0263259
-0.0263151
-0.0263037
-0.026281
-0.026262
-0.0262339
-0.0262094
-0.0261756
-0.0261436
-0.0261022
-0.0260625
-0.0260144
-0.0259685
-0.0259163
-0.0258692
-0.0258204
-0.0257793
-0.0257388
-0.025707
-0.0256759
-0.025652
-0.0256267
-0.0256059
-0.0255817
-0.02556
-0.025533
-0.0255068
-0.0254737
-0.0254391
-0.0253973
-0.0253542
-0.0253047
-0.0252544
-0.0251982
-0.02514
-0.0250737
-0.0250007
-0.024912
-0.0248054
-0.0246683
-0.0244917
-0.0242549
-0.0239387
-0.0235124
-0.0229442
-0.0221877
-0.0211953
-0.0199093
-0.0182742
-0.0162278
-0.0136968
-0.0105477
-0.00644838
-0.000617678
0.00877929
0.0246803
0.0511113
0.0823162
0.0843482
0.71788
1.57045
1.94085
2.01494
1.91941
1.73052
1.49938
1.25915
1.03124
0.827179
0.651974
0.506151
0.387691
0.293371
0.219399
0.162156
0.118428
0.0853195
0.0604027
0.0417659
0.0279503
0.0177542
0.0102676
0.00476626
0.000755461
-0.00218396
-0.00431419
-0.00588522
-0.00702175
-0.00786786
-0.00847651
-0.00893537
-0.00925926
-0.00950218
-0.00966174
-0.00977603
-0.00983778
-0.00987518
-0.00987794
-0.00987081
-0.00984375
-0.00981648
-0.0097793
-0.00974841
-0.00971154
-0.00968199
-0.0096463
-0.00961611
-0.00957872
-0.0095441
-0.00950083
-0.00945948
-0.00941034
-0.00936348
-0.00931061
-0.0092629
-0.00921378
-0.00917249
-0.00913216
-0.00910063
-0.00907016
-0.00904694
-0.00902273
-0.00900294
-0.00897999
-0.00895935
-0.0089336
-0.00890853
-0.00887702
-0.00884444
-0.00880547
-0.00876648
-0.00872311
-0.00868137
-0.00863715
-0.0085955
-0.00855226
-0.00851095
-0.00846603
-0.0084195
-0.00836466
-0.00830041
-0.0082167
-0.00810845
-0.00796311
-0.00777185
-0.00751704
-0.0071844
-0.00675353
-0.00620814
-0.00552619
-0.00468401
-0.00363353
-0.00226066
-0.00029601
0.00288332
0.00827104
0.0172136
0.0277432
0.0283809
-0.718352
-1.57158
-1.94239
-2.01665
-1.92119
-1.73236
-1.50136
-1.2614
-1.03389
-0.830312
-0.655617
-0.510255
-0.392219
-0.298138
-0.22438
-0.167291
-0.123505
-0.0902436
-0.0652174
-0.0465189
-0.0325769
-0.0222275
-0.0145624
-0.00892278
-0.0047625
-0.00172019
0.000521515
0.00214244
0.00333246
0.00418121
0.00480584
0.00524503
0.00557422
0.00580665
0.00599262
0.00613019
0.00625126
0.00634669
0.00643982
0.00651668
0.00659384
0.00665756
0.00672117
0.00677158
0.00682266
0.00686291
0.00690624
0.00694216
0.0069833
0.00702053
0.00706556
0.00710846
0.00715861
0.00720625
0.00725953
0.00730772
0.00735702
0.00739838
0.0074385
0.0074698
0.0074997
0.00752222
0.00754551
0.00756436
0.00758622
0.00760585
0.00763047
0.00765445
0.00768441
0.00771496
0.00775097
0.00778573
0.00782287
0.00785589
0.00788791
0.00791281
0.0079329
0.00794236
0.0079433
0.00792957
0.0079019
0.00785353
0.00778366
0.00768337
0.00754693
0.00736011
0.00711181
0.00678285
0.00635628
0.00580915
0.00512286
0.00427033
0.00321062
0.00183136
-0.000126603
-0.00328307
-0.00862446
-0.017499
-0.0279376
-0.0284599
-2.15532
-4.70983
-5.81739
-6.03817
-5.75169
-5.18585
-4.49375
-3.77474
-3.09296
-2.48282
-1.95917
-1.52345
-1.1696
-0.887673
-0.666632
-0.495565
-0.364543
-0.265126
-0.190321
-0.134411
-0.0928049
-0.0619802
-0.0392154
-0.0224732
-0.0101701
-0.00116682
0.00543154
0.0102333
0.013742
0.01628
0.0181338
0.0194683
0.0204487
0.0211552
0.0216858
0.0220745
0.0223779
0.0226058
0.0227945
0.0229408
0.0230678
0.0231678
0.0232577
0.0233275
0.0233928
0.0234437
0.0234947
0.0235364
0.0235814
0.0236212
0.0236679
0.0237122
0.0237633
0.0238116
0.0238651
0.0239135
0.0239629
0.0240042
0.0240441
0.0240752
0.0241045
0.0241264
0.0241489
0.0241669
0.0241879
0.0242066
0.0242301
0.0242531
0.0242815
0.0243101
0.024343
0.0243734
0.0244043
0.0244285
0.0244482
0.0244563
0.0244532
0.0244309
0.024388
0.0243142
0.0242043
0.0240438
0.0238211
0.0235131
0.023096
0.0225325
0.0217829
0.0207945
0.0195131
0.0178766
0.0158262
0.0132854
0.0101275
0.00602218
0.000198507
-0.00917537
-0.0250301
-0.0513934
-0.0825082
-0.084426
-3.59447
-7.83653
-9.66749
-10.0294
-9.55183
-8.61117
-7.46111
-6.2665
-5.13387
-4.12037
-3.25064
-2.527
-1.93939
-1.4713
-1.10432
-0.820338
-0.602908
-0.437977
-0.313884
-0.221134
-0.152142
-0.101051
-0.0633408
-0.0356103
-0.015248
-0.000345171
0.0105649
0.0185149
0.0243186
0.0285289
0.0315998
0.0338207
0.0354462
0.0366225
0.0374944
0.0381319
0.0386158
0.038975
0.0392584
0.0394734
0.0396497
0.0397855
0.0399013
0.0399905
0.0400698
0.0401313
0.0401899
0.0402374
0.0402862
0.0403286
0.0403769
0.0404226
0.0404744
0.0405233
0.0405767
0.0406253
0.0406745
0.0407158
0.0407553
0.0407861
0.040815
0.0408364
0.0408582
0.0408755
0.0408956
0.0409135
0.040936
0.040958
0.0409851
0.0410116
0.0410414
0.0410674
0.0410919
0.0411073
0.0411147
0.041106
0.0410799
0.0410261
0.0409398
0.0408066
0.0406154
0.040344
0.0399701
0.0394569
0.0387621
0.0378258
0.0365799
0.0349383
0.0328095
0.0300927
0.0266902
0.0224797
0.0172589
0.0105038
0.000982059
-0.0142594
-0.0399876
-0.0828624
-0.133776
-0.137779
-5.0372
-10.9432
-13.4755
-13.97
-13.3014
-11.9896
-10.3868
-8.72234
-7.14459
-5.73306
-4.52201
-3.51456
-2.6966
-2.04513
-1.53444
-1.13931
-0.836846
-0.607464
-0.434894
-0.30592
-0.210005
-0.138991
-0.0865925
-0.0480624
-0.0197796
0.00092137
0.0160691
0.0271133
0.0351731
0.0410276
0.0452952
0.048388
0.050648
0.0522865
0.0534945
0.0543766
0.0550383
0.0555266
0.0559031
0.0561857
0.0564104
0.0565813
0.0567227
0.0568308
0.056924
0.0569959
0.057062
0.0571151
0.0571678
0.0572128
0.0572627
0.0573095
0.057362
0.0574112
0.0574646
0.0575129
0.0575619
0.057603
0.0576422
0.0576727
0.0577012
0.0577222
0.0577433
0.0577601
0.0577795
0.0577967
0.0578183
0.0578394
0.0578651
0.0578896
0.0579163
0.0579378
0.0579559
0.0579625
0.0579578
0.0579325
0.0578836
0.0577987
0.0576699
0.0574783
0.0572072
0.056827
0.0563047
0.0555899
0.0546225
0.0533198
0.0515858
0.0493011
0.0463372
0.0425552
0.0378201
0.0319701
0.0247431
0.0154611
0.00251142
-0.0180315
-0.0525921
-0.110375
-0.179628
-0.18681
-6.48478
-14.0203
-17.2232
-17.8391
-16.98
-15.3025
-13.2544
-11.128
-9.11317
-7.31111
-5.7654
-4.47983
-3.43629
-2.60533
-1.95404
-1.45021
-1.06463
-0.772279
-0.552362
-0.388018
-0.265822
-0.175364
-0.108631
-0.0595636
-0.0235524
0.00280602
0.0220887
0.0361524
0.0464142
0.0538737
0.05931
0.0632542
0.066134
0.0682242
0.0697606
0.0708819
0.0717171
0.0723316
0.0727991
0.0731477
0.0734197
0.0736248
0.073791
0.0739176
0.0740244
0.0741066
0.0741799
0.0742386
0.0742951
0.0743428
0.074394
0.0744419
0.074495
0.0745445
0.0745975
0.0746455
0.074694
0.0747348
0.0747736
0.0748039
0.074832
0.0748527
0.0748733
0.0748897
0.0749085
0.0749252
0.074946
0.0749662
0.0749906
0.0750132
0.0750367
0.0750537
0.0750654
0.0750634
0.0750467
0.075005
0.0749338
0.0748186
0.0746482
0.0743997
0.0740507
0.0735644
0.0728976
0.0719866
0.0707532
0.069093
0.0668822
0.0639684
0.0601865
0.0553601
0.0493194
0.0418705
0.032713
0.0210673
0.00504913
-0.0200375
-0.0620259
-0.132529
-0.218079
-0.229859
-7.93824
-17.0564
-20.8914
-21.6156
-20.5674
-18.5313
-16.0474
-13.4696
-11.0279
-8.84487
-6.97303
-5.41668
-4.15365
-3.14815
-2.36024
-1.75085
-1.2846
-0.931153
-0.665326
-0.466699
-0.319037
-0.209744
-0.129128
-0.0698555
-0.0263601
0.00547734
0.0287647
0.045753
0.058148
0.067163
0.073732
0.0785018
0.0819826
0.0845109
0.0863659
0.0877192
0.0887227
0.0894596
0.0900153
0.0904278
0.0907457
0.0909841
0.0911743
0.0913188
0.0914388
0.0915309
0.0916113
0.0916753
0.0917355
0.0917858
0.0918385
0.0918873
0.0919408
0.0919904
0.092043
0.0920904
0.0921383
0.0921787
0.0922171
0.0922472
0.092275
0.0922954
0.0923157
0.0923317
0.0923501
0.0923663
0.0923865
0.0924059
0.092429
0.0924497
0.0924701
0.0924826
0.0924881
0.0924775
0.092449
0.0923915
0.0922985
0.0921538
0.0919431
0.0916396
0.0912154
0.0906264
0.08982
0.0887191
0.0872286
0.0852221
0.0825486
0.0790236
0.0744455
0.0686012
0.0612887
0.0522913
0.0412946
0.0274805
0.00882462
-0.0198902
-0.0675908
-0.148098
-0.247335
-0.265341
-9.39824
-20.0378
-24.4591
-25.2777
-24.0434
-21.6577
-18.7497
-15.733
-12.8771
-10.3249
-8.13733
-6.3191
-4.84399
-3.66998
-2.75026
-2.03909
-1.49512
-1.08286
-0.772861
-0.541261
-0.369117
-0.241722
-0.147766
-0.0786891
-0.0280036
0.00909802
0.0362332
0.0560321
0.0704775
0.0809879
0.0886464
0.0942104
0.0982696
0.10122
0.103381
0.104958
0.106123
0.106978
0.107619
0.108093
0.108455
0.108725
0.108938
0.1091
0.109233
0.109335
0.109422
0.109491
0.109555
0.109607
0.109662
0.109711
0.109765
0.109815
0.109867
0.109913
0.10996
0.11
0.110038
0.110068
0.110096
0.110116
0.110136
0.110152
0.11017
0.110186
0.110205
0.110224
0.110246
0.110265
0.110282
0.11029
0.110289
0.110271
0.110231
0.110158
0.110044
0.109871
0.109621
0.109265
0.108769
0.108081
0.107141
0.105858
0.104121
0.101781
0.0986625
0.0945478
0.0891998
0.0823696
0.0738258
0.0633381
0.0506054
0.0348405
0.0140275
-0.017284
-0.0687366
-0.156079
-0.265845
-0.29177
-10.8647
-22.9477
-27.9038
-28.8034
-27.3877
-24.6635
-21.3453
-17.9048
-14.6495
-11.7419
-9.25094
-7.1813
-5.50278
-4.16732
-3.12142
-2.31292
-1.69467
-1.22625
-0.874085
-0.611039
-0.415556
-0.270909
-0.164244
-0.0858271
-0.0282926
0.0138237
0.0446249
0.0671019
0.0835015
0.0954377
0.104135
0.110457
0.115068
0.118421
0.120875
0.122665
0.123985
0.124952
0.125674
0.126207
0.126611
0.126912
0.127147
0.127325
0.12747
0.127581
0.127674
0.127748
0.127816
0.127871
0.127926
0.127977
0.128031
0.12808
0.128132
0.128177
0.128224
0.128263
0.1283
0.12833
0.128357
0.128378
0.128397
0.128413
0.128431
0.128447
0.128466
0.128484
0.128505
0.128522
0.128536
0.12854
0.128533
0.128506
0.128455
0.128368
0.128234
0.128033
0.127747
0.12734
0.126775
0.125995
0.124927
0.123471
0.121499
0.118843
0.115298
0.110619
0.104532
0.0967532
0.0870245
0.0751117
0.0607537
0.0432672
0.0208031
-0.0120062
-0.0650859
-0.155744
-0.272363
-0.30779
-12.3365
-25.7656
-31.201
-32.1702
-30.5804
-27.5309
-23.8187
-19.9717
-16.3341
-13.0871
-10.3068
-7.99769
-6.12572
-4.63685
-3.47119
-2.57039
-1.88178
-1.3602
-0.96817
-0.675403
-0.457874
-0.296939
-0.178277
-0.0910454
-0.0270473
0.019802
0.0540638
0.0790692
0.0973143
0.110598
0.120277
0.127316
0.132449
0.136182
0.138913
0.140905
0.142371
0.143445
0.144243
0.144831
0.145275
0.145606
0.145862
0.146055
0.146211
0.146331
0.14643
0.146509
0.146579
0.146637
0.146694
0.146745
0.146799
0.146848
0.146899
0.146943
0.146989
0.147027
0.147064
0.147094
0.147121
0.147141
0.147161
0.147176
0.147194
0.14721
0.147229
0.147246
0.147266
0.147281
0.147293
0.147293
0.14728
0.147245
0.147184
0.147082
0.146929
0.146703
0.146382
0.145928
0.145298
0.14443
0.143242
0.141623
0.13943
0.136474
0.132527
0.127312
0.120521
0.111836
0.100975
0.0877072
0.0718385
0.0528598
0.0292496
-0.00394448
-0.0564532
-0.146671
-0.266018
-0.312215
-13.8102
-28.4659
-34.3247
-35.3557
-33.6018
-30.2424
-26.1546
-21.9207
-17.9203
-14.3518
-11.298
-8.76298
-6.70868
-5.07543
-3.79718
-2.8097
-2.0551
-1.4837
-1.05434
-0.73377
-0.495629
-0.319471
-0.1896
-0.0941351
-0.0240997
0.0271711
0.0646663
0.0920348
0.112005
0.126548
0.137147
0.144856
0.150477
0.154567
0.157558
0.159738
0.161342
0.162514
0.163385
0.164025
0.164506
0.164864
0.165139
0.165347
0.165514
0.165641
0.165747
0.165829
0.165902
0.165963
0.166021
0.166073
0.166127
0.166176
0.166225
0.166269
0.166313
0.166351
0.166387
0.166416
0.166443
0.166464
0.166484
0.166499
0.166517
0.166533
0.166551
0.166568
0.166587
0.166601
0.16661
0.166605
0.166587
0.166545
0.166474
0.166359
0.166188
0.165938
0.165584
0.165086
0.164396
0.163446
0.162147
0.160376
0.157976
0.154741
0.150417
0.144697
0.137241
0.127698
0.115762
0.101214
0.0839491
0.0636973
0.039419