/*--------------------------------*- C++ -*----------------------------------*\
| =========                 |                                                 |
| \\      /  F ield         | OpenFOAM: The Open Source CFD Toolbox           |
|  \\    /   O peration     | Version:  5.x                                   |
|   \\  /    A nd           | Web:      www.OpenFOAM.org                      |
|    \\/     M anipulation  |                                                 |
\*---------------------------------------------------------------------------*/
FoamFile
{
    version     2.0;
    format      ascii;
    class       surfaceScalarField;
    location    "0.5";
    object      phi;
}
// * * * * * * * * * * * * * * * * * * * * * * * * * * * * * * * * * * * * * //

dimensions      [0 3 -1 0 0 0 0];

internalField   nonuniform List<scalar> 
7860
(
0.00283465
0.00216536
0.00262147
0.000213172
0.00260885
1.26143e-05
0.00260608
2.77482e-06
0.00260855
-2.46306e-06
0.00260704
1.5037e-06
0.00260573
1.31225e-06
0.00260396
1.76395e-06
0.00260258
1.38869e-06
0.00260136
1.21705e-06
0.0026004
9.56871e-07
0.00259963
7.72451e-07
0.00259903
5.97254e-07
0.00259857
4.59609e-07
0.00259823
3.43836e-07
0.00259798
2.52328e-07
0.0025978
1.81577e-07
0.00259767
1.28139e-07
0.00259758
8.92308e-08
0.00259752
6.13875e-08
0.00259748
4.09545e-08
0.00259745
2.68173e-08
0.00259743
1.69046e-08
0.00259742
1.12213e-08
0.00259741
7.73265e-09
0.00259741
4.73058e-09
0.00259741
2.35436e-09
0.0025974
1.9861e-09
0.0025974
1.98522e-09
0.0025974
1.28484e-09
0.0025974
2.72729e-10
0.0025974
2.35884e-10
0.0025974
3.6201e-10
0.0025974
7.2893e-10
0.0025974
3.44379e-10
0.0025974
6.15899e-11
0.0025974
-3.16732e-10
0.0025974
1.29526e-11
0.0025974
3.75506e-10
0.0025974
3.23032e-10
0.0025974
-8.40085e-11
0.0025974
-4.74308e-12
0.0025974
2.24251e-10
0.0025974
3.08808e-10
0.0025974
1.03455e-10
0.0025974
-1.42878e-10
0.0025974
-6.60116e-12
0.0025974
2.28974e-10
0.0025974
1.74968e-10
0.0025974
7.76558e-11
0.0025974
-3.73929e-11
0.0025974
4.20749e-11
0.0025974
8.33358e-11
0.0025974
-5.17916e-11
0.0025974
-2.80593e-10
0.0025974
-4.31447e-11
0.0025974
2.00401e-10
0.0025974
4.52339e-11
0.0025974
-2.90115e-10
0.0025974
-1.36391e-10
0.0025974
1.46519e-10
0.0025974
1.12538e-10
0.0025974
7.98958e-11
0.0025974
2.86615e-11
0.0025974
-2.05002e-10
0.0025974
-3.00435e-10
0.0025974
-2.01401e-10
0.0025974
-2.22767e-10
0.0025974
-3.27141e-10
0.0025974
-8.10372e-11
0.0025974
1.52829e-10
0.0025974
2.20327e-10
0.0025974
2.06999e-10
0.0025974
2.15329e-10
0.0025974
1.7708e-10
0.0025974
1.83628e-10
0.0025974
1.76161e-10
0.0025974
6.76545e-11
0.0025974
1.4437e-11
0.0025974
7.1615e-11
0.0025974
1.85777e-10
0.0025974
2.76588e-10
0.0025974
3.22436e-10
0.0025974
4.89305e-10
0.0025974
1.04122e-09
0.00259739
1.97066e-09
0.00259739
3.21502e-09
0.00259739
4.85456e-09
0.00259738
7.53931e-09
0.00259737
1.15028e-08
0.00259735
1.71066e-08
0.00259733
2.3874e-08
0.00259729
3.16461e-08
0.00259726
3.63306e-08
0.00259722
3.36359e-08
0.0025972
2.45932e-08
0.00259709
1.0636e-07
0.00259639
7.04105e-07
0.00259377
2.61681e-06
-1.17721e-06
0.00456831
0.00259705
0.00437578
0.000405701
0.00434658
4.18126e-05
0.00434245
6.90747e-06
0.00434511
-5.12084e-06
0.00434326
3.35149e-06
0.00434133
3.23738e-06
0.00433885
4.24872e-06
0.00433681
3.4274e-06
0.00433502
3.00134e-06
0.0043336
2.38185e-06
0.00433244
1.92718e-06
0.00433154
1.50025e-06
0.00433084
1.1596e-06
0.00433031
8.71665e-07
0.00432992
6.43486e-07
0.00432963
4.64744e-07
0.00432943
3.29215e-07
0.00432929
2.3084e-07
0.00432919
1.60225e-07
0.00432913
1.07199e-07
0.00432908
7.11074e-08
0.00432905
4.69077e-08
0.00432903
3.1155e-08
0.00432902
2.00516e-08
0.00432901
1.27887e-08
0.00432901
7.89338e-09
0.004329
5.76936e-09
0.004329
4.16712e-09
0.004329
2.92636e-09
0.004329
1.37446e-09
0.004329
1.01146e-09
0.004329
7.2593e-10
0.004329
7.19575e-10
0.004329
-7.18925e-11
0.004329
-4.361e-11
0.004329
-4.0257e-10
0.004329
-3.27326e-10
0.004329
3.1634e-11
0.004329
4.40812e-10
0.004329
1.51007e-10
0.004329
2.57718e-10
0.004329
4.12366e-10
0.004329
5.41259e-10
0.004329
3.71622e-10
0.004329
1.02426e-10
0.004329
1.67642e-10
0.004329
4.78969e-10
0.004329
2.40848e-10
0.004329
1.8132e-10
0.004329
9.83367e-11
0.004329
9.02763e-11
0.004329
-4.49163e-11
0.004329
-1.0069e-10
0.004329
-2.97358e-10
0.004329
-7.04676e-11
0.004329
1.64443e-10
0.004329
1.51065e-10
0.004329
-1.79065e-10
0.004329
-2.18745e-11
0.004329
1.94193e-10
0.004329
4.14771e-11
0.004329
-7.56945e-11
0.004329
-4.6778e-11
0.004329
-3.8154e-10
0.004329
-6.19454e-10
0.004329
-5.02986e-10
0.004329
-3.68198e-10
0.004329
-5.20093e-10
0.004329
-2.76563e-10
0.004329
2.04497e-11
0.004329
1.98459e-10
0.004329
2.35743e-10
0.004329
3.37148e-10
0.004329
3.03074e-10
0.004329
3.06348e-10
0.004329
2.9744e-10
0.004329
1.98421e-10
0.004329
1.48437e-10
0.004329
2.49558e-10
0.004329
3.96776e-10
0.004329
6.65128e-10
0.004329
9.74279e-10
0.00432899
1.6471e-09
0.00432899
2.96425e-09
0.00432899
5.1228e-09
0.00432898
8.21509e-09
0.00432898
1.2649e-08
0.00432896
1.95387e-08
0.00432895
2.94992e-08
0.00432892
4.35209e-08
0.00432888
6.10436e-08
0.00432883
8.21969e-08
0.00432877
9.80843e-08
0.0043287
1.06008e-07
0.00432861
1.16525e-07
0.00432828
4.29352e-07
0.00432694
2.04837e-06
0.00432234
7.21723e-06
7.94088e-06
0.0050727
0.00252434
0.00495583
0.000522572
0.00492279
7.4858e-05
0.00492021
9.48231e-06
0.00492173
-6.64231e-06
0.0049203
4.7823e-06
0.00491835
5.18288e-06
0.00491601
6.58517e-06
0.00491401
5.43019e-06
0.00491227
4.74174e-06
0.00491086
3.79566e-06
0.00490971
3.07662e-06
0.0049088
2.40744e-06
0.00490809
1.86642e-06
0.00490756
1.40895e-06
0.00490716
1.0448e-06
0.00490686
7.57924e-07
0.00490666
5.38428e-07
0.00490651
3.7816e-07
0.0049064
2.63574e-07
0.00490633
1.77803e-07
0.00490629
1.18108e-07
0.00490626
7.8101e-08
0.00490624
5.21473e-08
0.00490622
3.35981e-08
0.00490621
2.12967e-08
0.00490621
1.36692e-08
0.0049062
9.94431e-09
0.0049062
6.51908e-09
0.0049062
4.43303e-09
0.0049062
2.42188e-09
0.0049062
1.64485e-09
0.0049062
1.19413e-09
0.0049062
9.15398e-10
0.0049062
-3.91765e-10
0.0049062
-3.36622e-10
0.0049062
-4.16767e-10
0.0049062
-3.7645e-10
0.0049062
-1.78875e-10
0.0049062
4.70378e-10
0.0049062
3.7979e-10
0.0049062
5.58587e-10
0.0049062
6.9959e-10
0.0049062
7.19405e-10
0.0049062
5.43889e-10
0.0049062
3.63759e-10
0.0049062
3.87324e-10
0.0049062
7.30425e-10
0.0049062
2.84208e-10
0.0049062
1.24091e-10
0.0049062
1.5117e-10
0.0049062
2.31212e-10
0.0049062
-6.9216e-11
0.0049062
-2.17378e-10
0.0049062
-3.43565e-10
0.0049062
-4.60313e-11
0.0049062
2.18002e-10
0.0049062
2.94537e-10
0.0049062
-3.99177e-12
0.0049062
1.28275e-10
0.0049062
3.16382e-10
0.0049062
8.86129e-11
0.0049062
-2.27888e-10
0.0049062
-2.73301e-10
0.0049062
-5.8021e-10
0.0049062
-8.62546e-10
0.0049062
-8.11887e-10
0.0049062
-5.96103e-10
0.0049062
-6.92041e-10
0.0049062
-4.71459e-10
0.0049062
-1.67791e-10
0.0049062
9.33485e-11
0.0049062
2.04796e-10
0.0049062
3.49811e-10
0.0049062
3.26684e-10
0.0049062
3.59792e-10
0.0049062
3.99425e-10
0.0049062
3.12357e-10
0.0049062
2.70908e-10
0.0049062
4.16756e-10
0.0049062
6.64532e-10
0.0049062
1.15259e-09
0.00490619
1.7212e-09
0.00490619
2.90565e-09
0.00490619
5.09056e-09
0.00490619
8.59717e-09
0.00490618
1.35932e-08
0.00490618
2.08686e-08
0.00490616
3.20328e-08
0.00490614
4.81649e-08
0.00490612
7.09084e-08
0.00490608
9.9736e-08
0.00490602
1.36121e-07
0.00490595
1.681e-07
0.00490586
2.03685e-07
0.00490571
2.65847e-07
0.00490522
9.10803e-07
0.00490359
3.68027e-06
0.00489773
1.30798e-05
2.27865e-05
0.00521047
0.00231387
0.00513989
0.000593156
0.00511251
0.000102233
0.00511112
1.08754e-05
0.00511198
-7.50311e-06
0.00511092
5.83812e-06
0.00510923
6.87277e-06
0.00510727
8.55201e-06
0.00510553
7.16169e-06
0.00510403
6.24806e-06
0.00510279
5.03563e-06
0.00510177
4.08967e-06
0.00510097
3.21323e-06
0.00510033
2.50035e-06
0.00509985
1.89333e-06
0.00509949
1.40914e-06
0.00509922
1.02591e-06
0.00509903
7.31181e-07
0.00509889
5.14781e-07
0.00509879
3.59785e-07
0.00509873
2.44523e-07
0.00509868
1.62939e-07
0.00509865
1.07298e-07
0.00509863
7.14299e-08
0.00509862
4.68755e-08
0.00509861
3.00359e-08
0.00509861
1.89661e-08
0.0050986
1.32834e-08
0.0050986
8.53946e-09
0.0050986
5.86802e-09
0.0050986
3.54339e-09
0.0050986
2.11161e-09
0.0050986
1.33898e-09
0.0050986
1.08287e-09
0.0050986
-4.80859e-10
0.0050986
-6.49515e-10
0.0050986
-6.23696e-10
0.0050986
-4.7758e-10
0.0050986
-2.81193e-10
0.0050986
5.41854e-10
0.0050986
6.20212e-10
0.0050986
8.08453e-10
0.0050986
9.91359e-10
0.0050986
9.7693e-10
0.0050986
8.29725e-10
0.0050986
6.23144e-10
0.0050986
4.78522e-10
0.0050986
8.73893e-10
0.0050986
4.71616e-10
0.0050986
2.07156e-10
0.0050986
1.43144e-10
0.0050986
2.56593e-10
0.0050986
1.41411e-11
0.0050986
-1.86175e-10
0.0050986
-3.96162e-10
0.0050986
-1.10871e-10
0.0050986
2.93901e-10
0.0050986
5.17497e-10
0.0050986
2.02572e-10
0.0050986
1.91687e-10
0.0050986
3.63493e-10
0.0050986
1.41073e-10
0.0050986
-2.97718e-10
0.0050986
-4.89094e-10
0.0050986
-8.02197e-10
0.0050986
-1.11486e-09
0.0050986
-1.0912e-09
0.0050986
-8.16723e-10
0.0050986
-8.73557e-10
0.0050986
-7.12839e-10
0.0050986
-4.06567e-10
0.0050986
-5.43696e-11
0.0050986
1.9982e-10
0.0050986
3.87149e-10
0.0050986
3.56365e-10
0.0050986
3.74621e-10
0.0050986
5.16321e-10
0.0050986
4.98306e-10
0.0050986
4.80707e-10
0.0050986
6.02708e-10
0.0050986
8.97162e-10
0.00509859
1.61524e-09
0.00509859
2.51871e-09
0.00509859
4.17473e-09
0.00509859
7.09855e-09
0.00509859
1.18285e-08
0.00509858
1.86641e-08
0.00509858
2.85669e-08
0.00509856
4.35825e-08
0.00509855
6.52517e-08
0.00509852
9.60433e-08
0.00509849
1.35671e-07
0.00509843
1.87867e-07
0.00509836
2.39761e-07
0.00509825
3.16857e-07
0.00509806
4.54505e-07
0.00509749
1.48525e-06
0.00509582
5.3438e-06
0.00508954
1.93611e-05
3.78768e-05
0.00523372
0.00208015
0.00519443
0.000632452
0.00517355
0.000123116
0.00517303
1.13866e-05
0.0051735
-7.96632e-06
0.00517281
6.52801e-06
0.00517145
8.22852e-06
0.0051699
1.01004e-05
0.00516851
8.55766e-06
0.00516729
7.4683e-06
0.00516627
6.05251e-06
0.00516543
4.92742e-06
0.00516476
3.88566e-06
0.00516423
3.02903e-06
0.00516382
2.30363e-06
0.00516351
1.71973e-06
0.00516328
1.25611e-06
0.00516311
8.98433e-07
0.00516299
6.34434e-07
0.0051629
4.4441e-07
0.00516285
3.03075e-07
0.00516281
2.02702e-07
0.00516278
1.33603e-07
0.00516276
8.85738e-08
0.00516275
5.8634e-08
0.00516274
3.80701e-08
0.00516274
2.37941e-08
0.00516274
1.60617e-08
0.00516273
1.02491e-08
0.00516273
7.14022e-09
0.00516273
4.58453e-09
0.00516273
2.52043e-09
0.00516273
1.25038e-09
0.00516273
1.06568e-09
0.00516273
-5.09388e-10
0.00516273
-8.77048e-10
0.00516273
-9.05875e-10
0.00516273
-6.45348e-10
0.00516273
-3.37198e-10
0.00516273
6.81551e-10
0.00516273
8.75288e-10
0.00516273
1.03079e-09
0.00516273
1.26886e-09
0.00516273
1.25684e-09
0.00516273
1.16067e-09
0.00516273
9.10707e-10
0.00516273
5.57208e-10
0.00516273
9.41122e-10
0.00516273
6.66294e-10
0.00516273
3.81464e-10
0.00516273
1.68539e-10
0.00516273
2.23892e-10
0.00516273
7.50595e-11
0.00516273
-8.14715e-11
0.00516273
-3.69834e-10
0.00516273
-1.80929e-10
0.00516273
3.05371e-10
0.00516273
7.00005e-10
0.00516273
4.10654e-10
0.00516273
2.42723e-10
0.00516273
3.5596e-10
0.00516273
1.56891e-10
0.00516273
-3.14534e-10
0.00516273
-6.26043e-10
0.00516273
-9.92964e-10
0.00516273
-1.37666e-09
0.00516273
-1.38161e-09
0.00516273
-1.04255e-09
0.00516273
-1.04567e-09
0.00516273
-9.45848e-10
0.00516273
-6.52139e-10
0.00516273
-2.08388e-10
0.00516273
2.17154e-10
0.00516273
4.84489e-10
0.00516273
4.39378e-10
0.00516273
3.92097e-10
0.00516273
6.14126e-10
0.00516273
7.04381e-10
0.00516273
7.52316e-10
0.00516273
8.3633e-10
0.00516273
1.12675e-09
0.00516273
2.01741e-09
0.00516273
3.27375e-09
0.00516273
5.37912e-09
0.00516273
8.92017e-09
0.00516272
1.46569e-08
0.00516272
2.31057e-08
0.00516271
3.52898e-08
0.0051627
5.36177e-08
0.00516269
8.00014e-08
0.00516266
1.17787e-07
0.00516263
1.67205e-07
0.00516259
2.34992e-07
0.00516252
3.09348e-07
0.0051624
4.37111e-07
0.00516218
6.65025e-07
0.00516159
2.07508e-06
0.00516002
6.91926e-06
0.00515412
2.52593e-05
5.102e-05
0.00522291
0.00185723
0.00520675
0.000648611
0.00519187
0.000138001
0.00519196
1.12906e-05
0.0051922
-8.20291e-06
0.00519184
6.89221e-06
0.00519083
9.23602e-06
0.0051897
1.12332e-05
0.00518864
9.61083e-06
0.00518772
8.3942e-06
0.00518693
6.83587e-06
0.00518628
5.57902e-06
0.00518575
4.41483e-06
0.00518533
3.44945e-06
0.005185
2.63224e-06
0.00518475
1.9707e-06
0.00518456
1.44385e-06
0.00518443
1.03638e-06
0.00518433
7.34272e-07
0.00518426
5.14739e-07
0.00518421
3.51533e-07
0.00518417
2.35981e-07
0.00518415
1.56113e-07
0.00518414
1.03359e-07
0.00518413
6.84827e-08
0.00518412
4.48516e-08
0.00518412
2.80788e-08
0.00518411
1.85942e-08
0.00518411
1.18069e-08
0.00518411
8.21178e-09
0.00518411
5.4377e-09
0.00518411
2.92446e-09
0.00518411
1.14814e-09
0.00518411
9.96019e-10
0.00518411
-4.9801e-10
0.00518411
-9.95258e-10
0.00518411
-1.1523e-09
0.00518411
-8.21247e-10
0.00518411
-3.58169e-10
0.00518411
8.82304e-10
0.00518411
1.12201e-09
0.00518411
1.20946e-09
0.00518411
1.51034e-09
0.00518411
1.52844e-09
0.00518411
1.46891e-09
0.00518411
1.18665e-09
0.00518411
6.45689e-10
0.00518411
9.67433e-10
0.00518411
7.97276e-10
0.00518411
5.52497e-10
0.00518411
2.29996e-10
0.00518411
2.06069e-10
0.00518411
9.45935e-11
0.00518411
-1.69768e-12
0.00518411
-2.9973e-10
0.00518411
-1.82772e-10
0.00518411
2.93943e-10
0.00518411
8.18207e-10
0.00518411
5.99497e-10
0.00518411
3.23676e-10
0.00518411
3.48628e-10
0.00518411
1.42362e-10
0.00518411
-3.42033e-10
0.00518411
-7.28612e-10
0.00518411
-1.14458e-09
0.00518411
-1.61058e-09
0.00518411
-1.67046e-09
0.00518411
-1.26862e-09
0.00518411
-1.18801e-09
0.00518411
-1.11348e-09
0.00518411
-8.57088e-10
0.00518411
-3.48821e-10
0.00518411
2.32403e-10
0.00518411
6.04599e-10
0.00518411
5.66073e-10
0.00518411
4.33302e-10
0.00518411
6.84313e-10
0.00518411
8.87167e-10
0.00518411
1.03825e-09
0.00518411
1.11588e-09
0.00518411
1.3743e-09
0.00518411
2.36846e-09
0.00518411
3.92691e-09
0.00518411
6.43925e-09
0.0051841
1.05004e-08
0.0051841
1.7031e-08
0.0051841
2.68012e-08
0.00518409
4.08201e-08
0.00518408
6.18516e-08
0.00518407
9.20908e-08
0.00518405
1.35688e-07
0.00518403
1.9361e-07
0.00518399
2.7613e-07
0.00518392
3.73236e-07
0.0051838
5.56321e-07
0.00518359
8.78489e-07
0.00518301
2.65002e-06
0.00518163
8.30499e-06
0.00517657
3.03152e-05
6.16624e-05
0.00520416
0.00165307
0.00520564
0.000647134
0.00519614
0.0001475
0.00519664
1.079e-05
0.00519675
-8.30515e-06
0.00519666
6.97813e-06
0.00519599
9.90728e-06
0.00519525
1.19757e-05
0.00519453
1.03327e-05
0.00519389
9.03485e-06
0.00519333
7.38972e-06
0.00519286
6.04581e-06
0.00519248
4.79958e-06
0.00519217
3.75935e-06
0.00519192
2.87697e-06
0.00519173
2.15947e-06
0.00519159
1.58653e-06
0.00519149
1.14241e-06
0.00519141
8.11732e-07
0.00519135
5.69952e-07
0.00519131
3.89596e-07
0.00519129
2.62113e-07
0.00519127
1.7421e-07
0.00519126
1.15538e-07
0.00519125
7.63984e-08
0.00519125
5.03211e-08
0.00519124
3.167e-08
0.00519124
2.09092e-08
0.00519124
1.31836e-08
0.00519124
9.01697e-09
0.00519124
6.07232e-09
0.00519124
3.34281e-09
0.00519124
1.10913e-09
0.00519124
8.94143e-10
0.00519124
-4.99598e-10
0.00519124
-1.03369e-09
0.00519124
-1.30881e-09
0.00519124
-9.756e-10
0.00519124
-3.88705e-10
0.00519124
1.08643e-09
0.00519124
1.36177e-09
0.00519124
1.35694e-09
0.00519124
1.70079e-09
0.00519124
1.76192e-09
0.00519124
1.73081e-09
0.00519124
1.44339e-09
0.00519124
7.53048e-10
0.00519124
9.60375e-10
0.00519124
8.47811e-10
0.00519124
6.95535e-10
0.00519123
3.26824e-10
0.00519123
2.21783e-10
0.00519123
9.02715e-11
0.00519123
4.2765e-11
0.00519123
-2.02197e-10
0.00519123
-1.05323e-10
0.00519123
2.95833e-10
0.00519123
8.86222e-10
0.00519123
7.61744e-10
0.00519123
4.34621e-10
0.00519123
3.58634e-10
0.00519123
1.0029e-10
0.00519123
-4.12328e-10
0.00519123
-8.33678e-10
0.00519123
-1.25629e-09
0.00519123
-1.78405e-09
0.00519123
-1.92521e-09
0.00519123
-1.49076e-09
0.00519123
-1.30988e-09
0.00519123
-1.21376e-09
0.00519123
-1.01223e-09
0.00519123
-4.8951e-10
0.00519123
2.08115e-10
0.00519123
7.03163e-10
0.00519123
7.08307e-10
0.00519123
4.95753e-10
0.00519123
7.3017e-10
0.00519123
1.02989e-09
0.00519123
1.31029e-09
0.00519123
1.42439e-09
0.00519123
1.6366e-09
0.00519123
2.6677e-09
0.00519123
4.45407e-09
0.00519123
7.31726e-09
0.00519123
1.17948e-08
0.00519123
1.89125e-08
0.00519123
2.95755e-08
0.00519122
4.50851e-08
0.00519122
6.81657e-08
0.00519121
1.01378e-07
0.00519119
1.49537e-07
0.00519117
2.14488e-07
0.00519114
3.10214e-07
0.00519108
4.29535e-07
0.00519097
6.67613e-07
0.00519077
1.08105e-06
0.00519024
3.17097e-06
0.00518911
9.44277e-06
0.0051851
3.43191e-05
6.97065e-05
0.0051855
0.00146757
0.00520066
0.000631968
0.00519593
0.000152233
0.00519669
1.00364e-05
0.00519669
-8.311e-06
0.00519683
6.83593e-06
0.00519648
1.02648e-05
0.0051961
1.23591e-05
0.00519569
1.07426e-05
0.00519532
9.4053e-06
0.00519498
7.72314e-06
0.00519469
6.33351e-06
0.00519445
5.04268e-06
0.00519425
3.9592e-06
0.00519409
3.03793e-06
0.00519396
2.28559e-06
0.00519386
1.68339e-06
0.00519379
1.21568e-06
0.00519374
8.66057e-07
0.0051937
6.09104e-07
0.00519367
4.16916e-07
0.00519365
2.80912e-07
0.00519364
1.87489e-07
0.00519363
1.24831e-07
0.00519362
8.24335e-08
0.00519362
5.43512e-08
0.00519362
3.44601e-08
0.00519361
2.28394e-08
0.00519361
1.42804e-08
0.00519361
9.50261e-09
0.00519361
6.44159e-09
0.00519361
3.71458e-09
0.00519361
1.10748e-09
0.00519361
7.3996e-10
0.00519361
-5.59547e-10
0.00519361
-1.0479e-09
0.00519361
-1.37227e-09
0.00519361
-1.08174e-09
0.00519361
-4.32393e-10
0.00519361
1.25298e-09
0.00519361
1.59542e-09
0.00519361
1.49812e-09
0.00519361
1.84776e-09
0.00519361
1.94584e-09
0.00519361
1.93637e-09
0.00519361
1.66812e-09
0.00519361
8.86269e-10
0.00519361
9.40364e-10
0.00519361
8.35895e-10
0.00519361
8.07089e-10
0.00519361
4.59988e-10
0.00519361
2.84744e-10
0.00519361
9.19617e-11
0.00519361
6.44675e-11
0.00519361
-9.16364e-11
0.00519361
3.55108e-11
0.00519361
3.28705e-10
0.00519361
9.16378e-10
0.00519361
8.84146e-10
0.00519361
5.45867e-10
0.00519361
3.86208e-10
0.00519361
5.22445e-11
0.00519361
-5.16387e-10
0.00519361
-9.64448e-10
0.00519361
-1.34628e-09
0.00519361
-1.88862e-09
0.00519361
-2.12398e-09
0.00519361
-1.71703e-09
0.00519361
-1.44584e-09
0.00519361
-1.28178e-09
0.00519361
-1.12173e-09
0.00519361
-6.28842e-10
0.00519361
1.31177e-10
0.00519361
7.48203e-10
0.00519361
8.43879e-10
0.00519361
5.80877e-10
0.00519361
7.72429e-10
0.00519361
1.13419e-09
0.00519361
1.55025e-09
0.00519361
1.73817e-09
0.00519361
1.90762e-09
0.00519361
2.91455e-09
0.00519361
4.84598e-09
0.00519361
7.98423e-09
0.00519361
1.27618e-08
0.00519361
2.02642e-08
0.0051936
3.14571e-08
0.0051936
4.79186e-08
0.0051936
7.25265e-08
0.00519359
1.07809e-07
0.00519358
1.59241e-07
0.00519357
2.29587e-07
0.00519354
3.3645e-07
0.00519349
4.75956e-07
0.0051934
7.6462e-07
0.00519322
1.25955e-06
0.00519278
3.60668e-06
0.00519192
1.02999e-05
0.00518906
3.71838e-05
7.51792e-05
0.00516898
0.0012986
0.00519496
0.000605983
0.00519442
0.000152775
0.00519532
9.14355e-06
0.00519523
-8.22751e-06
0.00519555
6.51534e-06
0.00519548
1.03355e-05
0.00519543
1.24158e-05
0.00519531
1.0863e-05
0.00519519
9.52327e-06
0.00519506
7.84806e-06
0.00519495
6.45036e-06
0.00519484
5.1491e-06
0.00519475
4.0517e-06
0.00519467
3.11664e-06
0.0051946
2.34967e-06
0.00519455
1.73444e-06
0.00519451
1.2558e-06
0.00519448
8.96891e-07
0.00519446
6.31867e-07
0.00519444
4.33223e-07
0.00519443
2.92291e-07
0.00519442
1.95728e-07
0.00519442
1.30958e-07
0.00519441
8.6497e-08
0.00519441
5.70353e-08
0.00519441
3.63427e-08
0.00519441
2.41121e-08
0.00519441
1.50075e-08
0.0051944
9.68292e-09
0.0051944
6.51192e-09
0.0051944
3.94959e-09
0.0051944
1.09027e-09
0.0051944
5.23198e-10
0.0051944
-6.86819e-10
0.0051944
-1.08135e-09
0.00519441
-1.37653e-09
0.00519441
-1.1289e-09
0.00519441
-4.72868e-10
0.00519441
1.35939e-09
0.00519441
1.80601e-09
0.00519441
1.63958e-09
0.00519441
1.963e-09
0.00519441
2.08022e-09
0.0051944
2.0866e-09
0.0051944
1.84945e-09
0.0051944
1.04506e-09
0.0051944
9.3591e-10
0.0051944
7.90311e-10
0.0051944
8.8884e-10
0.0051944
6.20414e-10
0.0051944
4.01115e-10
0.0051944
1.30086e-10
0.0051944
8.41665e-11
0.0051944
1.89918e-11
0.0051944
2.10404e-10
0.0051944
3.9681e-10
0.0051944
9.22307e-10
0.0051944
9.65412e-10
0.0051944
6.26782e-10
0.0051944
4.18007e-10
0.0051944
1.98508e-11
0.0051944
-6.25747e-10
0.0051944
-1.12505e-09
0.0051944
-1.43831e-09
0.0051944
-1.93411e-09
0.0051944
-2.24902e-09
0.0051944
-1.93802e-09
0.0051944
-1.61604e-09
0.0051944
-1.35515e-09
0.0051944
-1.19405e-09
0.0051944
-7.53107e-10
0.0051944
1.41606e-11
0.0051944
7.21941e-10
0.0051944
9.53442e-10
0.0051944
6.8738e-10
0.0051944
8.31992e-10
0.0051944
1.21297e-09
0.0051944
1.74869e-09
0.0051944
2.03213e-09
0.0051944
2.18043e-09
0.0051944
3.10988e-09
0.0051944
5.10087e-09
0.0051944
8.41553e-09
0.0051944
1.33809e-08
0.0051944
2.10202e-08
0.0051944
3.24702e-08
0.0051944
4.94326e-08
0.0051944
7.48939e-08
0.00519439
1.11353e-07
0.00519439
1.64749e-07
0.00519438
2.38724e-07
0.00519436
3.54125e-07
0.00519432
5.10414e-07
0.00519425
8.41779e-07
0.0051941
1.40304e-06
0.00519377
3.93517e-06
0.00519322
1.08578e-05
0.00519151
3.88866e-05
7.8176e-05
0.00515488
0.00114372
0.00518952
0.000571337
0.00519266
0.000149637
0.00519362
8.19106e-06
0.00519344
-8.04688e-06
0.00519389
6.06256e-06
0.00519408
1.01484e-05
0.00519432
1.21779e-05
0.00519446
1.07178e-05
0.00519457
9.40809e-06
0.00519464
7.7781e-06
0.00519469
6.40628e-06
0.00519471
5.12573e-06
0.00519472
4.04133e-06
0.00519472
3.11588e-06
0.00519472
2.35346e-06
0.00519471
1.74061e-06
0.0051947
1.26324e-06
0.00519469
9.04481e-07
0.00519469
6.38321e-07
0.00519468
4.38372e-07
0.00519468
2.96176e-07
0.00519468
1.98862e-07
0.00519467
1.33725e-07
0.00519467
8.84887e-08
0.00519467
5.83218e-08
0.00519467
3.72285e-08
0.00519467
2.46794e-08
0.00519467
1.53472e-08
0.00519467
9.56587e-09
0.00519467
6.31905e-09
0.00519467
4.00456e-09
0.00519467
1.03662e-09
0.00519467
2.69321e-10
0.00519467
-8.83945e-10
0.00519467
-1.14096e-09
0.00519467
-1.33726e-09
0.00519467
-1.11239e-09
0.00519467
-4.92297e-10
0.00519467
1.3931e-09
0.00519467
1.98121e-09
0.00519467
1.78203e-09
0.00519467
2.05821e-09
0.00519467
2.1765e-09
0.00519467
2.18249e-09
0.00519467
1.98097e-09
0.00519467
1.19956e-09
0.00519467
9.57843e-10
0.00519467
7.37728e-10
0.00519467
9.39622e-10
0.00519467
7.93145e-10
0.00519467
5.59426e-10
0.00519467
2.21149e-10
0.00519467
1.22962e-10
0.00519467
1.1915e-10
0.00519467
3.88511e-10
0.00519467
5.01564e-10
0.00519467
9.19519e-10
0.00519467
9.96462e-10
0.00519467
6.63676e-10
0.00519467
4.39309e-10
0.00519467
6.4778e-12
0.00519467
-7.08198e-10
0.00519467
-1.30125e-09
0.00519467
-1.55459e-09
0.00519467
-1.95312e-09
0.00519467
-2.30665e-09
0.00519467
-2.14129e-09
0.00519467
-1.83244e-09
0.00519467
-1.48471e-09
0.00519467
-1.25368e-09
0.00519467
-8.60311e-10
0.00519467
-1.19689e-10
0.00519467
6.28746e-10
0.00519467
1.00818e-09
0.00519467
8.00355e-10
0.00519467
9.21428e-10
0.00519467
1.28486e-09
0.00519467
1.90285e-09
0.00519467
2.28315e-09
0.00519467
2.4436e-09
0.00519467
3.25881e-09
0.00519467
5.20368e-09
0.00519467
8.59933e-09
0.00519467
1.36352e-08
0.00519467
2.12362e-08
0.00519467
3.26408e-08
0.00519467
4.96374e-08
0.00519467
7.52857e-08
0.00519467
1.12023e-07
0.00519466
1.66069e-07
0.00519466
2.41804e-07
0.00519465
3.62678e-07
0.00519463
5.31248e-07
0.00519458
8.94658e-07
0.00519448
1.50329e-06
0.00519427
4.1418e-06
0.00519402
1.11078e-05
0.00519346
3.9446e-05
7.88374e-05
0.00514299
0.00100072
0.00518462
0.000529705
0.00519099
0.000143272
0.00519195
7.23036e-06
0.00519166
-7.75645e-06
0.0051922
5.51822e-06
0.00519262
9.73294e-06
0.00519312
1.16769e-05
0.00519351
1.03314e-05
0.00519383
9.07997e-06
0.00519408
7.5282e-06
0.00519428
6.21247e-06
0.00519442
4.98086e-06
0.00519453
3.93399e-06
0.0051946
3.03958e-06
0.00519466
2.29966e-06
0.00519469
1.70364e-06
0.00519472
1.23901e-06
0.00519473
8.89417e-07
0.00519474
6.28799e-07
0.00519475
4.32405e-07
0.00519475
2.92545e-07
0.00519476
1.96917e-07
0.00519476
1.3306e-07
0.00519476
8.83045e-08
0.00519476
5.81678e-08
0.00519476
3.71141e-08
0.00519476
2.4536e-08
0.00519476
1.527e-08
0.00519476
9.25113e-09
0.00519476
5.90902e-09
0.00519476
3.87396e-09
0.00519476
9.61808e-10
0.00519476
1.20958e-11
0.00519476
-1.09704e-09
0.00519476
-1.22874e-09
0.00519476
-1.28402e-09
0.00519476
-1.04258e-09
0.00519476
-4.83823e-10
0.00519476
1.35921e-09
0.00519476
2.08436e-09
0.00519476
1.9045e-09
0.00519476
2.1358e-09
0.00519476
2.23225e-09
0.00519476
2.241e-09
0.00519476
2.04976e-09
0.00519476
1.33934e-09
0.00519476
1.00582e-09
0.00519476
7.03775e-10
0.00519476
9.64099e-10
0.00519476
9.52821e-10
0.00519476
7.5168e-10
0.00519476
3.6477e-10
0.00519476
1.86452e-10
0.00519476
2.02775e-10
0.00519476
5.52989e-10
0.00519476
6.34491e-10
0.00519476
9.17781e-10
0.00519476
1.00423e-09
0.00519476
6.52425e-10
0.00519476
4.32951e-10
0.00519476
1.63888e-12
0.00519476
-7.53482e-10
0.00519476
-1.46718e-09
0.00519476
-1.69947e-09
0.00519476
-1.97108e-09
0.00519476
-2.29597e-09
0.00519476
-2.29414e-09
0.00519476
-2.06858e-09
0.00519476
-1.66556e-09
0.00519476
-1.32161e-09
0.00519476
-9.34478e-10
0.00519476
-2.44203e-10
0.00519476
4.78438e-10
0.00519476
1.00302e-09
0.00519476
9.01739e-10
0.00519476
1.0448e-09
0.00519476
1.36784e-09
0.00519476
2.01769e-09
0.00519476
2.47246e-09
0.00519476
2.67901e-09
0.00519476
3.36413e-09
0.00519476
5.18379e-09
0.00519476
8.53039e-09
0.00519476
1.35118e-08
0.00519476
2.09144e-08
0.00519476
3.19922e-08
0.00519476
4.85695e-08
0.00519476
7.37539e-08
0.00519476
1.09884e-07
0.00519477
1.63271e-07
0.00519477
2.38821e-07
0.00519477
3.61762e-07
0.00519476
5.37287e-07
0.00519474
9.20093e-07
0.00519469
1.55474e-06
0.00519461
4.21823e-06
0.00519467
1.10498e-05
0.0051952
3.89093e-05
7.73322e-05
0.00513303
0.000867697
0.00518031
0.000482424
0.00518949
0.000134087
0.00519043
6.2916e-06
0.00519002
-7.34454e-06
0.00519062
4.91626e-06
0.00519124
9.11783e-06
0.00519197
1.09433e-05
0.00519257
9.72829e-06
0.00519309
8.5596e-06
0.00519351
7.11429e-06
0.00519384
5.88126e-06
0.0051941
4.72383e-06
0.00519429
3.73668e-06
0.00519444
2.89267e-06
0.00519455
2.19175e-06
0.00519462
1.62597e-06
0.00519468
1.18463e-06
0.00519472
8.52572e-07
0.00519474
6.03859e-07
0.00519476
4.15602e-07
0.00519477
2.81511e-07
0.00519478
1.89988e-07
0.00519478
1.29007e-07
0.00519478
8.59138e-08
0.00519479
5.65792e-08
0.00519479
3.60449e-08
0.00519479
2.37261e-08
0.00519479
1.48036e-08
0.00519479
8.76585e-09
0.00519479
5.33402e-09
0.00519479
3.57694e-09
0.00519479
8.67578e-10
0.00519479
-1.82722e-10
0.00519479
-1.29731e-09
0.00519479
-1.33684e-09
0.00519479
-1.23586e-09
0.00519479
-9.36374e-10
0.00519479
-4.39678e-10
0.00519479
1.26582e-09
0.00519479
2.10478e-09
0.00519479
1.99041e-09
0.00519479
2.18497e-09
0.00519479
2.25721e-09
0.00519479
2.25565e-09
0.00519479
2.07464e-09
0.00519479
1.44481e-09
0.00519479
1.0734e-09
0.00519479
6.98765e-10
0.00519479
9.67917e-10
0.00519479
1.08983e-09
0.00519479
9.52408e-10
0.00519479
5.50788e-10
0.00519479
2.79566e-10
0.00519479
2.70005e-10
0.00519479
6.86536e-10
0.00519479
7.79197e-10
0.00519479
9.35837e-10
0.00519479
9.98454e-10
0.00519479
6.10262e-10
0.00519479
3.88586e-10
0.00519479
-1.54054e-11
0.00519479
-7.69209e-10
0.00519479
-1.60585e-09
0.00519479
-1.87006e-09
0.00519479
-2.00985e-09
0.00519479
-2.24695e-09
0.00519479
-2.37806e-09
0.00519479
-2.28624e-09
0.00519479
-1.89337e-09
0.00519479
-1.41244e-09
0.00519479
-9.85626e-10
0.00519479
-3.461e-10
0.00519479
3.09189e-10
0.00519479
9.32955e-10
0.00519479
9.74782e-10
0.00519479
1.19252e-09
0.00519479
1.47857e-09
0.00519479
2.10391e-09
0.00519479
2.59145e-09
0.00519479
2.86094e-09
0.00519479
3.4243e-09
0.00519479
5.04872e-09
0.00519479
8.21818e-09
0.00519479
1.30114e-08
0.00519479
2.00569e-08
0.00519479
3.05577e-08
0.00519479
4.62991e-08
0.0051948
7.03879e-08
0.0051948
1.05045e-07
0.00519481
1.56489e-07
0.00519482
2.29886e-07
0.00519483
3.51281e-07
0.00519484
5.27899e-07
0.00519484
9.16226e-07
0.00519484
1.55428e-06
0.0051949
4.16176e-06
0.00519526
1.06919e-05
0.00519682
3.73454e-05
7.38467e-05
0.00512472
0.000742977
0.00517657
0.000430575
0.0051882
0.00012246
0.0051891
5.38975e-06
0.00518856
-6.8037e-06
0.00518919
4.28367e-06
0.00518998
8.33067e-06
0.00519091
1.00065e-05
0.00519171
8.9327e-06
0.0051924
7.86779e-06
0.00519296
6.55306e-06
0.00519342
5.42585e-06
0.00519378
4.36486e-06
0.00519405
3.45729e-06
0.00519427
2.68089e-06
0.00519442
2.03389e-06
0.00519454
1.51059e-06
0.00519462
1.10215e-06
0.00519468
7.95215e-07
0.00519472
5.6434e-07
0.00519475
3.88512e-07
0.00519477
2.63373e-07
0.00519478
1.78259e-07
0.00519479
1.217e-07
0.00519479
8.13713e-08
0.00519479
5.35921e-08
0.0051948
3.40667e-08
0.0051948
2.23005e-08
0.0051948
1.39418e-08
0.0051948
8.11403e-09
0.0051948
4.64508e-09
0.0051948
3.14504e-09
0.0051948
7.49494e-10
0.0051948
-3.25496e-10
0.0051948
-1.4643e-09
0.0051948
-1.45649e-09
0.0051948
-1.21178e-09
0.0051948
-8.21888e-10
0.0051948
-3.79349e-10
0.0051948
1.13321e-09
0.0051948
2.03937e-09
0.0051948
2.03197e-09
0.0051948
2.21349e-09
0.0051948
2.26289e-09
0.0051948
2.25099e-09
0.0051948
2.06326e-09
0.0051948
1.51374e-09
0.0051948
1.14707e-09
0.0051948
7.28728e-10
0.0051948
9.74215e-10
0.0051948
1.18701e-09
0.0051948
1.14129e-09
0.0051948
7.6168e-10
0.0051948
4.07607e-10
0.0051948
3.27816e-10
0.0051948
7.88642e-10
0.0051948
9.24125e-10
0.0051948
9.66367e-10
0.0051948
9.95419e-10
0.0051948
5.59833e-10
0.0051948
3.1146e-10
0.0051948
-5.90218e-11
0.0051948
-7.621e-10
0.0051948
-1.68899e-09
0.0051948
-2.02854e-09
0.0051948
-2.06739e-09
0.0051948
-2.17454e-09
0.0051948
-2.38261e-09
0.0051948
-2.45539e-09
0.0051948
-2.13852e-09
0.0051948
-1.54393e-09
0.0051948
-1.02801e-09
0.0051948
-4.07873e-10
0.0051948
1.46746e-10
0.0051948
8.11591e-10
0.0051948
1.00504e-09
0.0051948
1.3479e-09
0.0051948
1.62444e-09
0.0051948
2.17905e-09
0.0051948
2.64246e-09
0.0051948
2.96389e-09
0.0051948
3.43099e-09
0.0051948
4.81374e-09
0.0051948
7.68547e-09
0.0051948
1.21466e-08
0.0051948
1.86815e-08
0.0051948
2.8382e-08
0.00519481