/*--------------------------------*- C++ -*----------------------------------*\
| =========                 |                                                 |
| \\      /  F ield         | OpenFOAM: The Open Source CFD Toolbox           |
|  \\    /   O peration     | Version:  5.x                                   |
|   \\  /    A nd           | Web:      www.OpenFOAM.org                      |
|    \\/     M anipulation  |                                                 |
\*---------------------------------------------------------------------------*/
FoamFile
{
    version     2.0;
    format      ascii;
    class       volVectorField;
    location    "0.5";
    object      U;
}
// * * * * * * * * * * * * * * * * * * * * * * * * * * * * * * * * * * * * * //

dimensions      [0 1 -1 0 0 0 0];

internalField   nonuniform List<vector> 
4000
(
(0.537579 0.0563866 0)
(0.552259 0.00359609 0)
(0.517064 -0.00175874 0)
(0.52285 -0.00199562 0)
(0.520977 -0.00212531 0)
(0.521864 -0.00203294 0)
(0.521212 -0.00204074 0)
(0.521021 -0.0020315 0)
(0.520641 -0.00204149 0)
(0.520402 -0.00204605 0)
(0.520173 -0.00205264 0)
(0.520004 -0.00205726 0)
(0.519864 -0.00206149 0)
(0.519759 -0.00206471 0)
(0.519679 -0.00206741 0)
(0.51962 -0.00206952 0)
(0.519576 -0.0020711 0)
(0.519546 -0.00207227 0)
(0.519524 -0.00207312 0)
(0.519509 -0.00207376 0)
(0.519499 -0.00207423 0)
(0.519493 -0.00207451 0)
(0.519488 -0.00207471 0)
(0.519485 -0.00207483 0)
(0.519483 -0.00207493 0)
(0.519482 -0.002075 0)
(0.519481 -0.00207504 0)
(0.519481 -0.00207504 0)
(0.51948 -0.00207505 0)
(0.51948 -0.00207506 0)
(0.51948 -0.00207508 0)
(0.51948 -0.00207508 0)
(0.51948 -0.00207508 0)
(0.51948 -0.00207507 0)
(0.51948 -0.00207508 0)
(0.51948 -0.00207509 0)
(0.51948 -0.00207509 0)
(0.51948 -0.00207508 0)
(0.51948 -0.00207508 0)
(0.51948 -0.00207508 0)
(0.51948 -0.00207509 0)
(0.51948 -0.00207508 0)
(0.51948 -0.00207508 0)
(0.51948 -0.00207508 0)
(0.51948 -0.00207509 0)
(0.51948 -0.00207509 0)
(0.51948 -0.00207509 0)
(0.51948 -0.00207508 0)
(0.51948 -0.00207508 0)
(0.51948 -0.00207508 0)
(0.51948 -0.00207509 0)
(0.51948 -0.00207509 0)
(0.51948 -0.00207508 0)
(0.51948 -0.00207509 0)
(0.51948 -0.00207509 0)
(0.51948 -0.00207509 0)
(0.51948 -0.00207508 0)
(0.51948 -0.00207509 0)
(0.51948 -0.00207509 0)
(0.51948 -0.00207509 0)
(0.51948 -0.00207508 0)
(0.51948 -0.00207508 0)
(0.51948 -0.00207508 0)
(0.51948 -0.00207508 0)
(0.51948 -0.00207509 0)
(0.51948 -0.00207509 0)
(0.51948 -0.00207509 0)
(0.51948 -0.00207509 0)
(0.51948 -0.00207509 0)
(0.51948 -0.00207509 0)
(0.51948 -0.00207508 0)
(0.51948 -0.00207508 0)
(0.51948 -0.00207508 0)
(0.51948 -0.00207508 0)
(0.51948 -0.00207508 0)
(0.51948 -0.00207508 0)
(0.51948 -0.00207508 0)
(0.51948 -0.00207508 0)
(0.51948 -0.00207509 0)
(0.51948 -0.00207508 0)
(0.51948 -0.00207508 0)
(0.51948 -0.00207508 0)
(0.519479 -0.00207508 0)
(0.519479 -0.00207507 0)
(0.519479 -0.00207506 0)
(0.519479 -0.00207504 0)
(0.519478 -0.00207501 0)
(0.519478 -0.00207497 0)
(0.519476 -0.0020749 0)
(0.519475 -0.00207481 0)
(0.519472 -0.00207468 0)
(0.519467 -0.00207454 0)
(0.519462 -0.00207438 0)
(0.519454 -0.00207434 0)
(0.519447 -0.0020746 0)
(0.519439 -0.0020752 0)
(0.519445 -0.00207423 0)
(0.519362 -0.00206095 0)
(0.519228 -0.00202081 0)
(0.518635 -0.00215125 0)
(0.865011 0.128421 0)
(0.911694 0.0160119 0)
(0.86196 0.0010083 0)
(0.871301 -4.86651e-05 0)
(0.867832 -0.000485479 0)
(0.869358 -0.000171717 0)
(0.868335 -0.000184622 0)
(0.868109 -0.000148461 0)
(0.867542 -0.000180214 0)
(0.867198 -0.000195898 0)
(0.866856 -0.00021881 0)
(0.866605 -0.000235492 0)
(0.866395 -0.000251522 0)
(0.866235 -0.00026417 0)
(0.866112 -0.00027415 0)
(0.86602 -0.000282014 0)
(0.865953 -0.000288121 0)
(0.865905 -0.000292751 0)
(0.865871 -0.000296101 0)
(0.865847 -0.000298488 0)
(0.865831 -0.000300265 0)
(0.86582 -0.000301479 0)
(0.865813 -0.000302306 0)
(0.865809 -0.000302821 0)
(0.865805 -0.000303176 0)
(0.865803 -0.000303425 0)
(0.865802 -0.000303598 0)
(0.865801 -0.000303649 0)
(0.865801 -0.000303686 0)
(0.8658 -0.000303734 0)
(0.8658 -0.000303803 0)
(0.8658 -0.00030381 0)
(0.8658 -0.000303812 0)
(0.8658 -0.000303803 0)
(0.8658 -0.000303835 0)
(0.8658 -0.00030384 0)
(0.8658 -0.000303858 0)
(0.8658 -0.000303847 0)
(0.8658 -0.00030383 0)
(0.8658 -0.000303821 0)
(0.8658 -0.00030384 0)
(0.8658 -0.000303834 0)
(0.8658 -0.000303825 0)
(0.8658 -0.00030382 0)
(0.8658 -0.00030383 0)
(0.8658 -0.000303843 0)
(0.8658 -0.000303836 0)
(0.8658 -0.000303822 0)
(0.8658 -0.000303831 0)
(0.8658 -0.000303835 0)
(0.8658 -0.00030384 0)
(0.8658 -0.000303837 0)
(0.865799 -0.00030384 0)
(0.865799 -0.000303846 0)
(0.865799 -0.000303856 0)
(0.865799 -0.000303843 0)
(0.865799 -0.000303832 0)
(0.865799 -0.000303837 0)
(0.865799 -0.000303855 0)
(0.865799 -0.000303845 0)
(0.865799 -0.000303832 0)
(0.865799 -0.000303838 0)
(0.865799 -0.000303841 0)
(0.865799 -0.000303841 0)
(0.865799 -0.000303856 0)
(0.865799 -0.000303865 0)
(0.865799 -0.000303859 0)
(0.8658 -0.000303856 0)
(0.8658 -0.000303863 0)
(0.8658 -0.00030385 0)
(0.8658 -0.000303836 0)
(0.8658 -0.00030383 0)
(0.8658 -0.00030383 0)
(0.8658 -0.000303827 0)
(0.8658 -0.00030383 0)
(0.865799 -0.00030383 0)
(0.865799 -0.00030383 0)
(0.865799 -0.000303836 0)
(0.865799 -0.000303839 0)
(0.865799 -0.000303835 0)
(0.865799 -0.000303828 0)
(0.865799 -0.000303819 0)
(0.865799 -0.000303811 0)
(0.865799 -0.000303792 0)
(0.865799 -0.000303746 0)
(0.865798 -0.000303671 0)
(0.865797 -0.000303567 0)
(0.865796 -0.000303422 0)
(0.865794 -0.000303192 0)
(0.865791 -0.000302857 0)
(0.865787 -0.000302388 0)
(0.86578 -0.000301815 0)
(0.865771 -0.00030115 0)
(0.865759 -0.000300734 0)
(0.865747 -0.000300837 0)
(0.865728 -0.000301261 0)
(0.865721 -0.00029291 0)
(0.865547 -0.000238825 0)
(0.865251 -7.22331e-05 0)
(0.86318 -0.000218102 0)
(0.960422 0.135842 0)
(1.02546 0.0244569 0)
(0.976315 0.00338545 0)
(0.987366 0.000867837 0)
(0.982981 0.00013661 0)
(0.984829 0.000642836 0)
(0.983697 0.00064636 0)
(0.983548 0.000707842 0)
(0.982972 0.000656182 0)
(0.982648 0.000627327 0)
(0.982307 0.000586698 0)
(0.982059 0.000556104 0)
(0.981848 0.000527137 0)
(0.981688 0.000503819 0)
(0.981563 0.000485039 0)
(0.981469 0.000470148 0)
(0.9814 0.000458462 0)
(0.98135 0.000449561 0)
(0.981315 0.000443101 0)
(0.98129 0.000438514 0)
(0.981273 0.000435073 0)
(0.981262 0.00043268 0)
(0.981254 0.000431068 0)
(0.981249 0.000430028 0)
(0.981246 0.00042929 0)
(0.981244 0.000428804 0)
(0.981242 0.000428493 0)
(0.981241 0.000428347 0)
(0.981241 0.00042822 0)
(0.98124 0.000428138 0)
(0.98124 0.000428049 0)
(0.98124 0.00042802 0)
(0.98124 0.000428003 0)
(0.98124 0.000427996 0)
(0.98124 0.000427942 0)
(0.98124 0.000427945 0)
(0.98124 0.000427935 0)
(0.98124 0.000427938 0)
(0.98124 0.00042795 0)
(0.98124 0.000427976 0)
(0.98124 0.000427967 0)
(0.98124 0.000427976 0)
(0.98124 0.000427981 0)
(0.98124 0.000427985 0)
(0.98124 0.000427976 0)
(0.98124 0.000427966 0)
(0.98124 0.000427967 0)
(0.98124 0.000427984 0)
(0.98124 0.000427967 0)
(0.98124 0.000427962 0)
(0.981239 0.00042796 0)
(0.981239 0.000427962 0)
(0.981239 0.000427951 0)
(0.981239 0.000427946 0)
(0.981239 0.000427937 0)
(0.981239 0.000427951 0)
(0.981239 0.000427964 0)
(0.981239 0.000427965 0)
(0.981239 0.000427949 0)
(0.981239 0.000427957 0)
(0.981239 0.000427967 0)
(0.981239 0.000427957 0)
(0.981239 0.000427946 0)
(0.981239 0.000427946 0)
(0.981239 0.00042793 0)
(0.981239 0.000427917 0)
(0.981239 0.000427921 0)
(0.981239 0.00042793 0)
(0.981239 0.000427923 0)
(0.981239 0.000427935 0)
(0.981239 0.00042795 0)
(0.981239 0.000427961 0)
(0.981239 0.000427964 0)
(0.981239 0.000427971 0)
(0.981239 0.000427969 0)
(0.981239 0.00042797 0)
(0.981239 0.00042797 0)
(0.981239 0.000427966 0)
(0.981239 0.000427964 0)
(0.981239 0.00042797 0)
(0.981239 0.000427979 0)
(0.981239 0.000427998 0)
(0.981239 0.00042802 0)
(0.981239 0.000428066 0)
(0.981239 0.000428152 0)
(0.981238 0.000428293 0)
(0.981237 0.000428493 0)
(0.981236 0.000428783 0)
(0.981234 0.00042923 0)
(0.981231 0.000429877 0)
(0.981226 0.000430786 0)
(0.981219 0.000431928 0)
(0.98121 0.00043333 0)
(0.981197 0.000434449 0)
(0.981182 0.000435305 0)
(0.981155 0.000436708 0)
(0.981134 0.000459567 0)
(0.980909 0.000570406 0)
(0.980539 0.000945389 0)
(0.977587 0.00117999 0)
(0.985044 0.123201 0)
(1.0596 0.0286992 0)
(1.01374 0.00475145 0)
(1.02588 0.000759593 0)
(1.0209 -0.000137677 0)
(1.02298 0.000491873 0)
(1.02182 0.000527363 0)
(1.02178 0.000606875 0)
(1.02125 0.000540949 0)
(1.02098 0.000499544 0)
(1.02068 0.000443328 0)
(1.02046 0.000399502 0)
(1.02027 0.000358115 0)
(1.02013 0.000323775 0)
(1.02002 0.000296826 0)
(1.01993 0.000275377 0)
(1.01987 0.000258439 0)
(1.01982 0.000245449 0)
(1.01979 0.000235936 0)
(1.01977 0.00022913 0)
(1.01975 0.000224058 0)
(1.01974 0.000220501 0)
(1.01973 0.000218088 0)
(1.01973 0.000216532 0)
(1.01973 0.000215453 0)
(1.01972 0.000214726 0)
(1.01972 0.000214259 0)
(1.01972 0.00021402 0)
(1.01972 0.000213814 0)
(1.01972 0.000213696 0)
(1.01972 0.000213587 0)
(1.01972 0.00021353 0)
(1.01972 0.000213501 0)
(1.01972 0.000213488 0)
(1.01972 0.000213416 0)
(1.01972 0.000213413 0)
(1.01972 0.000213411 0)
(1.01972 0.000213417 0)
(1.01972 0.000213426 0)
(1.01972 0.000213462 0)
(1.01972 0.000213462 0)
(1.01972 0.000213472 0)
(1.01972 0.000213479 0)
(1.01972 0.000213478 0)
(1.01972 0.000213471 0)
(1.01972 0.000213462 0)
(1.01972 0.000213459 0)
(1.01972 0.000213477 0)
(1.01972 0.000213456 0)
(1.01972 0.000213446 0)
(1.01972 0.000213444 0)
(1.01972 0.000213449 0)
(1.01972 0.000213436 0)
(1.01972 0.000213428 0)
(1.01972 0.000213418 0)
(1.01972 0.000213432 0)
(1.01972 0.00021345 0)
(1.01972 0.000213458 0)
(1.01972 0.000213442 0)
(1.01972 0.000213444 0)
(1.01972 0.000213454 0)
(1.01972 0.000213443 0)
(1.01972 0.000213424 0)
(1.01972 0.000213418 0)
(1.01972 0.000213402 0)
(1.01972 0.000213387 0)
(1.01972 0.000213389 0)
(1.01972 0.000213402 0)
(1.01972 0.000213398 0)
(1.01972 0.000213407 0)
(1.01972 0.000213423 0)
(1.01972 0.000213438 0)
(1.01972 0.000213447 0)
(1.01972 0.000213456 0)
(1.01972 0.000213454 0)
(1.01972 0.000213455 0)
(1.01972 0.00021346 0)
(1.01972 0.000213457 0)
(1.01972 0.000213456 0)
(1.01972 0.000213462 0)
(1.01972 0.000213476 0)
(1.01972 0.000213506 0)
(1.01972 0.000213543 0)
(1.01972 0.000213615 0)
(1.01972 0.000213743 0)
(1.01972 0.00021395 0)
(1.01972 0.000214248 0)
(1.01972 0.000214677 0)
(1.01971 0.000215332 0)
(1.01971 0.000216281 0)
(1.01971 0.000217625 0)
(1.0197 0.000219342 0)
(1.01969 0.00022155 0)
(1.01968 0.000223604 0)
(1.01966 0.000226283 0)
(1.01963 0.000231053 0)
(1.0196 0.000272659 0)
(1.01935 0.000446028 0)
(1.01899 0.00105289 0)
(1.01588 0.00177205 0)
(0.988613 0.109856 0)
(1.06805 0.0310182 0)
(1.02558 0.00577042 0)
(1.03849 0.000615472 0)
(1.03311 -0.00034628 0)
(1.03536 0.000356724 0)
(1.0342 0.000426343 0)
(1.03428 0.000517254 0)
(1.03381 0.000442141 0)
(1.03361 0.000390688 0)
(1.03335 0.000322769 0)
(1.03318 0.000268745 0)
(1.03302 0.000218014 0)
(1.0329 0.000175705 0)
(1.0328 0.000141935 0)
(1.03273 0.000114834 0)
(1.03268 9.32766e-05 0)
(1.03264 7.65708e-05 0)
(1.03261 6.41143e-05 0)
(1.03259 5.49528e-05 0)
(1.03257 4.81868e-05 0)
(1.03256 4.35999e-05 0)
(1.03256 4.0455e-05 0)
(1.03255 3.84173e-05 0)
(1.03255 3.70515e-05 0)
(1.03255 3.61151e-05 0)
(1.03255 3.54764e-05 0)
(1.03255 3.51394e-05 0)
(1.03255 3.48743e-05 0)
(1.03255 3.47303e-05 0)
(1.03255 3.4608e-05 0)
(1.03255 3.45181e-05 0)
(1.03255 3.44671e-05 0)
(1.03255 3.44584e-05 0)
(1.03255 3.43801e-05 0)
(1.03255 3.43657e-05 0)
(1.03255 3.4364e-05 0)
(1.03255 3.43747e-05 0)
(1.03255 3.43884e-05 0)
(1.03255 3.44339e-05 0)
(1.03255 3.44395e-05 0)
(1.03255 3.44484e-05 0)
(1.03255 3.44591e-05 0)
(1.03255 3.44581e-05 0)
(1.03255 3.44522e-05 0)
(1.03255 3.44406e-05 0)
(1.03255 3.44279e-05 0)
(1.03255 3.44478e-05 0)
(1.03255 3.44313e-05 0)
(1.03255 3.44176e-05 0)
(1.03255 3.44103e-05 0)
(1.03255 3.44144e-05 0)
(1.03255 3.44048e-05 0)
(1.03255 3.43961e-05 0)
(1.03255 3.43831e-05 0)
(1.03255 3.43947e-05 0)
(1.03255 3.44176e-05 0)
(1.03255 3.44334e-05 0)
(1.03255 3.44176e-05 0)
(1.03255 3.44128e-05 0)
(1.03255 3.44204e-05 0)
(1.03255 3.44104e-05 0)
(1.03255 3.43875e-05 0)
(1.03255 3.43746e-05 0)
(1.03255 3.43576e-05 0)
(1.03255 3.43401e-05 0)
(1.03255 3.43404e-05 0)
(1.03255 3.4356e-05 0)
(1.03255 3.43545e-05 0)
(1.03255 3.4361e-05 0)
(1.03255 3.43763e-05 0)
(1.03255 3.43966e-05 0)
(1.03255 3.44134e-05 0)
(1.03255 3.44248e-05 0)
(1.03255 3.44231e-05 0)
(1.03255 3.44223e-05 0)
(1.03255 3.44311e-05 0)
(1.03255 3.44327e-05 0)
(1.03255 3.44337e-05 0)
(1.03255 3.44389e-05 0)
(1.03255 3.44534e-05 0)
(1.03255 3.44939e-05 0)
(1.03255 3.45484e-05 0)
(1.03255 3.46431e-05 0)
(1.03255 3.4806e-05 0)
(1.03254 3.507e-05 0)
(1.03254 3.5455e-05 0)
(1.03254 3.60113e-05 0)
(1.03254 3.6848e-05 0)
(1.03254 3.80566e-05 0)
(1.03254 3.97828e-05 0)
(1.03253 4.20225e-05 0)
(1.03252 4.50294e-05 0)
(1.03251 4.8169e-05 0)
(1.03249 5.35365e-05 0)
(1.03246 6.30791e-05 0)
(1.03242 0.00012504 0)
(1.03218 0.000351628 0)
(1.03185 0.00117216 0)
(1.02901 0.00230045 0)
(0.986403 0.0981593 0)
(1.06831 0.032252 0)
(1.02896 0.00660542 0)
(1.04243 0.000577249 0)
(1.03677 -0.000403453 0)
(1.03917 0.000341935 0)
(1.03802 0.000443959 0)
(1.0382 0.000541555 0)
(1.0378 0.000461642 0)
(1.03767 0.000403351 0)
(1.03746 0.000328163 0)
(1.03733 0.000267899 0)
(1.03721 0.000212057 0)
(1.03711 0.000165867 0)
(1.03703 0.000126872 0)
(1.03698 9.5332e-05 0)
(1.03693 7.01693e-05 0)
(1.0369 5.06223e-05 0)
(1.03687 3.59961e-05 0)
(1.03686 2.51892e-05 0)
(1.03685 1.72001e-05 0)
(1.03684 1.175e-05 0)
(1.03683 7.98768e-06 0)
(1.03683 5.50625e-06 0)
(1.03683 3.85038e-06 0)
(1.03682 2.70684e-06 0)
(1.03682 1.87993e-06 0)
(1.03682 1.44917e-06 0)
(1.03682 1.13171e-06 0)
(1.03682 9.63701e-07 0)
(1.03682 8.30931e-07 0)
(1.03682 7.1475e-07 0)
(1.03682 6.37631e-07 0)
(1.03682 6.30226e-07 0)
(1.03682 5.53896e-07 0)
(1.03682 5.32207e-07 0)
(1.03682 5.26045e-07 0)
(1.03682 5.40035e-07 0)
(1.03682 5.60397e-07 0)
(1.03682 6.17564e-07 0)
(1.03682 6.27269e-07 0)
(1.03682 6.33219e-07 0)
(1.03682 6.47125e-07 0)
(1.03682 6.47022e-07 0)
(1.03682 6.43074e-07 0)
(1.03682 6.29687e-07 0)
(1.03682 6.07239e-07 0)
(1.03682 6.25232e-07 0)
(1.03682 6.14102e-07 0)
(1.03682 6.00917e-07 0)
(1.03682 5.8763e-07 0)
(1.03682 5.88301e-07 0)
(1.03682 5.81437e-07 0)
(1.03682 5.75221e-07 0)
(1.03682 5.60735e-07 0)
(1.03682 5.68259e-07 0)
(1.03682 5.92196e-07 0)
(1.03682 6.15397e-07 0)
(1.03682 6.02731e-07 0)
(1.03682 5.9154e-07 0)
(1.03682 5.94896e-07 0)
(1.03682 5.84898e-07 0)
(1.03682 5.6121e-07 0)
(1.03682 5.43777e-07 0)
(1.03682 5.24097e-07 0)
(1.03682 5.02625e-07 0)
(1.03682 5.00887e-07 0)
(1.03682 5.19692e-07 0)
(1.03682 5.21719e-07 0)
(1.03682 5.26055e-07 0)
(1.03682 5.39814e-07 0)
(1.03682 5.63925e-07 0)
(1.03682 5.89038e-07 0)
(1.03682 6.04948e-07 0)
(1.03682 6.03158e-07 0)
(1.03682 5.9868e-07 0)
(1.03682 6.10182e-07 0)
(1.03682 6.17245e-07 0)
(1.03682 6.22542e-07 0)
(1.03682 6.26869e-07 0)
(1.03682 6.40511e-07 0)
(1.03682 6.87804e-07 0)
(1.03682 7.58639e-07 0)
(1.03682 8.74894e-07 0)
(1.03682 1.0664e-06 0)
(1.03682 1.37538e-06 0)
(1.03682 1.83251e-06 0)
(1.03682 2.53421e-06 0)
(1.03682 3.5595e-06 0)
(1.03682 5.01037e-06 0)
(1.03681 7.07748e-06 0)
(1.03681 9.79015e-06 0)
(1.0368 1.35726e-05 0)
(1.03679 1.78683e-05 0)
(1.03678 2.59666e-05 0)
(1.03674 4.02628e-05 0)
(1.0367 0.000121049 0)
(1.03647 0.000386647 0)
(1.03621 0.00140313 0)
(1.03381 0.00285079 0)
(0.983077 0.0875417 0)
(1.06618 0.0325691 0)
(1.02959 0.00720363 0)
(1.04349 0.000558868 0)
(1.03761 -0.000412439 0)
(1.04014 0.000351452 0)
(1.039 0.000484287 0)
(1.03928 0.000586484 0)
(1.03894 0.00050433 0)
(1.03888 0.000441009 0)
(1.03872 0.000360413 0)
(1.03863 0.000295004 0)
(1.03854 0.000234464 0)
(1.03847 0.000184146 0)
(1.03841 0.000141328 0)
(1.03837 0.000106574 0)
(1.03833 7.88502e-05 0)
(1.03831 5.73747e-05 0)
(1.03829 4.14022e-05 0)
(1.03828 2.97385e-05 0)
(1.03827 2.10494e-05 0)
(1.03826 1.49056e-05 0)
(1.03826 1.06504e-05 0)
(1.03825 7.79577e-06 0)
(1.03825 5.86301e-06 0)
(1.03825 4.5197e-06 0)
(1.03825 3.55092e-06 0)
(1.03825 3.04167e-06 0)
(1.03825 2.67576e-06 0)
(1.03825 2.48054e-06 0)
(1.03825 2.33855e-06 0)
(1.03825 2.20685e-06 0)
(1.03825 2.10559e-06 0)
(1.03825 2.09658e-06 0)
(1.03825 2.02429e-06 0)
(1.03825 1.99867e-06 0)
(1.03825 1.98713e-06 0)
(1.03825 2.00259e-06 0)
(1.03825 2.02946e-06 0)
(1.03825 2.0985e-06 0)
(1.03825 2.11055e-06 0)
(1.03825 2.11218e-06 0)
(1.03825 2.12888e-06 0)
(1.03825 2.13058e-06 0)
(1.03825 2.12796e-06 0)
(1.03825 2.11376e-06 0)
(1.03825 2.08328e-06 0)
(1.03825 2.09674e-06 0)
(1.03825 2.08927e-06 0)
(1.03825 2.07924e-06 0)
(1.03825 2.06245e-06 0)
(1.03825 2.0594e-06 0)
(1.03825 2.0527e-06 0)
(1.03825 2.0488e-06 0)
(1.03825 2.03569e-06 0)
(1.03825 2.04125e-06 0)
(1.03825 2.06289e-06 0)
(1.03825 2.09061e-06 0)
(1.03825 2.08227e-06 0)
(1.03825 2.06746e-06 0)
(1.03825 2.06614e-06 0)
(1.03825 2.05428e-06 0)
(1.03825 2.02943e-06 0)
(1.03825 2.00933e-06 0)
(1.03825 1.98839e-06 0)
(1.03825 1.96331e-06 0)
(1.03825 1.9581e-06 0)
(1.03825 1.97918e-06 0)
(1.03825 1.98591e-06 0)
(1.03825 1.99027e-06 0)
(1.03825 2.00168e-06 0)
(1.03825 2.02761e-06 0)
(1.03825 2.05961e-06 0)
(1.03825 2.08109e-06 0)
(1.03825 2.08053e-06 0)
(1.03825 2.07206e-06 0)
(1.03825 2.08398e-06 0)
(1.03825 2.09613e-06 0)
(1.03825 2.1071e-06 0)
(1.03825 2.11233e-06 0)
(1.03825 2.12424e-06 0)
(1.03825 2.17501e-06 0)
(1.03825 2.25893e-06 0)
(1.03825 2.39358e-06 0)
(1.03825 2.60822e-06 0)
(1.03825 2.9516e-06 0)
(1.03825 3.46703e-06 0)
(1.03824 4.27464e-06 0)
(1.03824 5.48025e-06 0)
(1.03824 7.1475e-06 0)
(1.03824 9.50769e-06 0)
(1.03824 1.2633e-05 0)
(1.03823 1.71372e-05 0)
(1.03822 2.25828e-05 0)
(1.03821 3.31831e-05 0)
(1.03818 5.17201e-05 0)
(1.03814 0.000148986 0)
(1.03793 0.000449172 0)
(1.03774 0.00163077 0)
(1.03586 0.00331731 0)
(0.979966 0.077828 0)
(1.06355 0.0321173 0)
(1.02936 0.00755188 0)
(1.04358 0.000526192 0)
(1.03755 -0.000414869 0)
(1.04017 0.000349429 0)
(1.03905 0.000509682 0)
(1.03942 0.000614303 0)
(1.03914 0.000532361 0)
(1.03914 0.000466025 0)
(1.03903 0.00038232 0)
(1.03898 0.000313531 0)
(1.03892 0.000249714 0)
(1.03888 0.000196308 0)
(1.03884 0.000150913 0)
(1.03881 0.000113921 0)
(1.03878 8.43505e-05 0)
(1.03877 6.14148e-05 0)
(1.03875 4.43132e-05 0)
(1.03874 3.17919e-05 0)
(1.03874 2.24263e-05 0)
(1.03873 1.5772e-05 0)
(1.03873 1.11786e-05 0)
(1.03873 8.08113e-06 0)
(1.03873 5.96663e-06 0)
(1.03872 4.5189e-06 0)
(1.03872 3.48376e-06 0)
(1.03872 2.89181e-06 0)
(1.03872 2.48064e-06 0)
(1.03872 2.25367e-06 0)
(1.03872 2.10425e-06 0)
(1.03872 1.96776e-06 0)
(1.03872 1.84559e-06 0)
(1.03872 1.83094e-06 0)
(1.03872 1.76326e-06 0)
(1.03872 1.73768e-06 0)
(1.03872 1.72252e-06 0)
(1.03872 1.73712e-06 0)
(1.03872 1.7683e-06 0)
(1.03872 1.84871e-06 0)
(1.03872 1.8639e-06 0)
(1.03872 1.86061e-06 0)
(1.03872 1.87836e-06 0)
(1.03872 1.8823e-06 0)
(1.03872 1.8809e-06 0)
(1.03872 1.867e-06 0)
(1.03872 1.83052e-06 0)
(1.03872 1.83734e-06 0)
(1.03872 1.83161e-06 0)
(1.03872 1.82685e-06 0)
(1.03872 1.80929e-06 0)
(1.03872 1.80259e-06 0)
(1.03872 1.79411e-06 0)
(1.03872 1.79178e-06 0)
(1.03872 1.78201e-06 0)
(1.03872 1.78785e-06 0)
(1.03872 1.80507e-06 0)
(1.03872 1.83431e-06 0)
(1.03872 1.83044e-06 0)
(1.03872 1.81415e-06 0)
(1.03872 1.80846e-06 0)
(1.03872 1.79339e-06 0)
(1.03872 1.76626e-06 0)
(1.03872 1.74452e-06 0)
(1.03872 1.72454e-06 0)
(1.03872 1.69758e-06 0)
(1.03872 1.68793e-06 0)
(1.03872 1.70901e-06 0)
(1.03872 1.72048e-06 0)
(1.03872 1.72704e-06 0)
(1.03872 1.73608e-06 0)
(1.03872 1.76158e-06 0)
(1.03872 1.79826e-06 0)
(1.03872 1.82581e-06 0)
(1.03872 1.82838e-06 0)
(1.03872 1.81669e-06 0)
(1.03872 1.8273e-06 0)
(1.03872 1.84344e-06 0)
(1.03872 1.86084e-06 0)
(1.03872 1.86878e-06 0)
(1.03872 1.87857e-06 0)
(1.03872 1.92974e-06 0)
(1.03872 2.02305e-06 0)
(1.03872 2.17423e-06 0)
(1.03872 2.40772e-06 0)
(1.03872 2.77643e-06 0)
(1.03872 3.3539e-06 0)
(1.03872 4.21222e-06 0)
(1.03872 5.49881e-06 0)
(1.03872 7.28629e-06 0)
(1.03872 9.83871e-06 0)
(1.03871 1.32738e-05 0)
(1.03871 1.83915e-05 0)
(1.0387 2.49124e-05 0)
(1.03869 3.81432e-05 0)
(1.03866 6.09854e-05 0)
(1.03863 0.000172693 0)
(1.03847 0.000499268 0)
(1.03833 0.00180387 0)
(1.037 0.00365521 0)
(0.977357 0.0689827 0)
(1.06102 0.0310585 0)
(1.02892 0.00767553 0)
(1.04336 0.000482641 0)
(1.03723 -0.000414052 0)
(1.03992 0.000336168 0)
(1.0388 0.000518924 0)
(1.03927 0.000623827 0)
(1.03904 0.000544229 0)
(1.0391 0.000476879 0)
(1.03903 0.00039245 0)
(1.03902 0.00032232 0)
(1.03899 0.000257099 0)
(1.03897 0.00020222 0)
(1.03895 0.000155519 0)
(1.03893 0.000117295 0)
(1.03892 8.66664e-05 0)
(1.03891 6.28596e-05 0)
(1.0389 4.50359e-05 0)
(1.03889 3.19083e-05 0)
(1.03889 2.20772e-05 0)
(1.03889 1.51012e-05 0)
(1.03889 1.03116e-05 0)
(1.03888 7.09287e-06 0)
(1.03888 4.88927e-06 0)
(1.03888 3.41513e-06 0)
(1.03888 2.35898e-06 0)
(1.03888 1.7252e-06 0)
(1.03888 1.27355e-06 0)
(1.03888 1.00502e-06 0)
(1.03888 8.46928e-07 0)
(1.03888 7.1492e-07 0)
(1.03888 5.77024e-07 0)
(1.03888 5.53256e-07 0)
(1.03888 4.89992e-07 0)
(1.03888 4.67954e-07 0)
(1.03888 4.52636e-07 0)
(1.03888 4.6552e-07 0)
(1.03888 4.98133e-07 0)
(1.03888 5.8714e-07 0)
(1.03888 6.07074e-07 0)
(1.03888 5.99731e-07 0)
(1.03888 6.16854e-07 0)
(1.03888 6.22425e-07 0)
(1.03888 6.22065e-07 0)
(1.03888 6.09186e-07 0)
(1.03888 5.6957e-07 0)
(1.03888 5.68572e-07 0)
(1.03888 5.62274e-07 0)
(1.03888 5.63722e-07 0)
(1.03888 5.48473e-07 0)
(1.03888 5.38843e-07 0)
(1.03888 5.27155e-07 0)
(1.03888 5.24938e-07 0)
(1.03888 5.19421e-07 0)
(1.03888 5.27479e-07 0)
(1.03888 5.39502e-07 0)
(1.03888 5.67302e-07 0)
(1.03888 5.67349e-07 0)
(1.03888 5.5061e-07 0)
(1.03888 5.41811e-07 0)
(1.03888 5.23437e-07 0)
(1.03888 4.92973e-07 0)
(1.03888 4.69258e-07 0)
(1.03888 4.51977e-07 0)
(1.03888 4.25881e-07 0)
(1.03888 4.11866e-07 0)
(1.03888 4.29729e-07 0)
(1.03888 4.44661e-07 0)
(1.03888 4.55316e-07 0)
(1.03888 4.6338e-07 0)
(1.03888 4.86848e-07 0)
(1.03888 5.25304e-07 0)
(1.03888 5.58326e-07 0)
(1.03888 5.66477e-07 0)
(1.03888 5.53385e-07 0)
(1.03888 5.61917e-07 0)
(1.03888 5.80248e-07 0)
(1.03888 6.03922e-07 0)
(1.03888 6.15954e-07 0)
(1.03888 6.24202e-07 0)
(1.03888 6.72949e-07 0)
(1.03888 7.71613e-07 0)
(1.03888 9.41912e-07 0)
(1.03888 1.1958e-06 0)
(1.03888 1.58311e-06 0)
(1.03888 2.18455e-06 0)
(1.03888 3.05837e-06 0)
(1.03888 4.34436e-06 0)
(1.03888 6.16857e-06 0)
(1.03888 8.81994e-06 0)
(1.03888 1.24604e-05 0)
(1.03887 1.80595e-05 0)
(1.03887 2.551e-05 0)
(1.03886 4.1124e-05 0)
(1.03884 6.7748e-05 0)
(1.03881 0.000190669 0)
(1.03869 0.000533653 0)
(1.03862 0.00191702 0)
(1.03784 0.00386452 0)
(0.975241 0.0609091 0)
(1.05874 0.0295201 0)
(1.02845 0.00760359 0)
(1.04306 0.000434929 0)
(1.03684 -0.000408155 0)
(1.03958 0.000315745 0)
(1.03849 0.00051507 0)
(1.03902 0.00061832 0)
(1.03884 0.000542731 0)
(1.03895 0.000476126 0)
(1.03893 0.000393065 0)
(1.03895 0.000323432 0)
(1.03895 0.000258512 0)
(1.03895 0.00020364 0)
(1.03895 0.000156855 0)
(1.03895 0.000118391 0)
(1.03895 8.75024e-05 0)
(1.03894 6.34557e-05 0)
(1.03894 4.54009e-05 0)
(1.03894 3.2035e-05 0)
(1.03894 2.20075e-05 0)
(1.03894 1.48849e-05 0)
(1.03894 1.0008e-05 0)
(1.03894 6.74132e-06 0)
(1.03893 4.48721e-06 0)
(1.03893 2.98911e-06 0)
(1.03893 1.93556e-06 0)
(1.03893 1.3068e-06 0)
(1.03893 8.36815e-07 0)
(1.03893 5.42453e-07 0)
(1.03893 3.78397e-07 0)
(1.03893 2.56645e-07 0)
(1.03893 1.09565e-07 0)
(1.03893 7.48143e-08 0)
(1.03893 1.3966e-08 0)
(1.03893 -6.94928e-10 0)
(1.03893 -1.22453e-08 0)
(1.03893 -3.62271e-10 0)
(1.03893 3.09672e-08 0)
(1.03893 1.22511e-07 0)
(1.03893 1.48804e-07 0)
(1.03893 1.39592e-07 0)
(1.03893 1.56007e-07 0)
(1.03893 1.62138e-07 0)
(1.03893 1.62373e-07 0)
(1.03893 1.50415e-07 0)
(1.03893 1.09323e-07 0)
(1.03893 1.00919e-07 0)
(1.03893 9.19218e-08 0)
(1.03893 9.9164e-08 0)
(1.03893 8.9435e-08 0)
(1.03893 7.7646e-08 0)
(1.03893 6.25029e-08 0)
(1.03893 5.85917e-08 0)
(1.03893 5.67092e-08 0)
(1.03893 6.82815e-08 0)
(1.03893 7.63994e-08 0)
(1.03893 1.00523e-07 0)
(1.03893 1.02626e-07 0)
(1.03893 8.54106e-08 0)
(1.03893 7.50456e-08 0)
(1.03893 5.45021e-08 0)
(1.03893 2.09294e-08 0)
(1.03893 -5.6489e-09 0)
(1.03893 -1.99833e-08 0)
(1.03893 -4.21737e-08 0)
(1.03893 -5.91406e-08 0)
(1.03893 -4.72437e-08 0)
(1.03893 -3.14795e-08 0)
(1.03893 -1.61622e-08 0)
(1.03893 -6.40353e-09 0)
(1.03893 1.41643e-08 0)
(1.03893 5.10555e-08 0)
(1.03893 8.85864e-08 0)
(1.03893 1.04532e-07 0)
(1.03893 9.27383e-08 0)
(1.03893 9.99464e-08 0)
(1.03893 1.18619e-07 0)
(1.03893 1.47486e-07 0)
(1.03893 1.6422e-07 0)
(1.03893 1.72316e-07 0)
(1.03893 2.16433e-07 0)
(1.03893 3.15695e-07 0)
(1.03893 4.92964e-07 0)
(1.03893 7.53749e-07 0)
(1.03893 1.14348e-06 0)
(1.03893 1.72422e-06 0)
(1.03893 2.58066e-06 0)
(1.03893 3.86382e-06 0)
(1.03893 5.70331e-06 0)
(1.03893 8.40493e-06 0)
(1.03893 1.2171e-05 0)
(1.03893 1.81174e-05 0)
(1.03893 2.63019e-05 0)
(1.03892 4.38183e-05 0)
(1.03891 7.33368e-05 0)
(1.03888 0.000203615 0)
(1.03882 0.00055331 0)
(1.03882 0.00197252 0)
(1.03856 0.00395345 0)
(0.973539 0.0534861 0)
(1.05675 0.0275962 0)
(1.02802 0.00736022 0)
(1.04276 0.000386334 0)
(1.03647 -0.000396629 0)
(1.03924 0.000290274 0)
(1.03816 0.00049954 0)
(1.03876 0.000599357 0)
(1.03862 0.000529033 0)
(1.03879 0.00046469 0)
(1.0388 0.000384774 0)
(1.03886 0.000317241 0)
(1.03888 0.00025411 0)
(1.0389 0.000200537 0)
(1.03892 0.00015479 0)
(1.03893 0.000117021 0)
(1.03894 8.66252e-05 0)
(1.03894 6.29376e-05 0)
(1.03895 4.51225e-05 0)
(1.03895 3.18715e-05 0)
(1.03895 2.19031e-05 0)
(1.03895 1.48097e-05 0)
(1.03895 9.95718e-06 0)
(1.03895 6.7133e-06 0)
(1.03895 4.45197e-06 0)
(1.03895 2.93801e-06 0)
(1.03895 1.88007e-06 0)
(1.03895 1.25046e-06 0)
(1.03895 7.83852e-07 0)
(1.03895 4.84819e-07 0)
(1.03895 3.17955e-07 0)
(1.03895 2.09299e-07 0)
(1.03895 6.13971e-08 0)
(1.03895 1.68174e-08 0)
(1.03895 -4.1618e-08 0)
(1.03895 -4.96908e-08 0)
(1.03895 -5.52728e-08 0)
(1.03895 -4.31617e-08 0)
(1.03895 -1.44218e-08 0)
(1.03895 7.66354e-08 0)
(1.03895 1.09878e-07 0)
(1.03895 1.00731e-07 0)
(1.03895 1.14943e-07 0)
(1.03895 1.20507e-07 0)
(1.03895 1.20915e-07 0)
(1.03895 1.09939e-07 0)
(1.03895 7.09141e-08 0)
(1.03895 5.61696e-08 0)
(1.03895 4.33504e-08 0)
(1.03895 5.50507e-08 0)
(1.03895 5.19594e-08 0)
(1.03895 4.05506e-08 0)
(1.03895 2.24204e-08 0)
(1.03895 1.49121e-08 0)
(1.03895 1.4976e-08 0)
(1.03895 3.08773e-08 0)
(1.03895 3.68034e-08 0)
(1.03895 5.49846e-08 0)
(1.03895 5.82231e-08 0)
(1.03895 3.98562e-08 0)
(1.03895 2.89179e-08 0)
(1.03895 8.36394e-09 0)
(1.03895 -2.78039e-08 0)
(1.03895 -5.96239e-08 0)
(1.03895 -7.22009e-08 0)
(1.03895 -8.86758e-08 0)
(1.03895 -1.05778e-07 0)
(1.03895 -1.01444e-07 0)
(1.03895 -8.81879e-08 0)
(1.03895 -6.93356e-08 0)
(1.03895 -5.50445e-08 0)
(1.03895 -3.58648e-08 0)
(1.03895 -1.8002e-09 0)
(1.03895 3.70004e-08 0)
(1.03895 6.03958e-08 0)
(1.03895 5.26731e-08 0)
(1.03895 5.99505e-08 0)
(1.03895 7.73243e-08 0)
(1.03895 1.09075e-07 0)
(1.03895 1.29995e-07 0)
(1.03895 1.39576e-07 0)
(1.03895 1.77644e-07 0)
(1.03895 2.72588e-07 0)
(1.03895 4.42895e-07 0)
(1.03895 6.95716e-07 0)
(1.03895 1.07376e-06 0)
(1.03895 1.63755e-06 0)
(1.03895 2.47915e-06 0)
(1.03895 3.75447e-06 0)
(1.03895 5.58517e-06 0)
(1.03895 8.28636e-06 0)
(1.03895 1.20925e-05 0)
(1.03895 1.82308e-05 0)
(1.03895 2.69046e-05 0)
(1.03895 4.57262e-05 0)
(1.03894 7.71018e-05 0)
(1.03893 0.000210674 0)
(1.03892 0.00055794 0)
(1.03898 0.00197223 0)
(1.03921 0.00393004 0)
(0.972173 0.0466064 0)
(1.05502 0.02536 0)
(1.02765 0.00696644 0)
(1.04248 0.000338448 0)
(1.03614 -0.000379173 0)
(1.03893 0.000261264 0)
(1.03785 0.000473438 0)
(1.03851 0.000568134 0)
(1.03842 0.000503998 0)
(1.03862 0.000443229 0)
(1.03867 0.000367982 0)
(1.03876 0.000303963 0)
(1.0388 0.000243949 0)
(1.03885 0.000192838 0)
(1.03888 0.00014915 0)
(1.0389 0.000112937 0)
(1.03892 8.37332e-05 0)
(1.03893 6.09571e-05 0)
(1.03894 4.38173e-05 0)
(1.03895 3.10091e-05 0)
(1.03895 2.1337e-05 0)
(1.03895 1.44484e-05 0)
(1.03896 9.74125e-06 0)
(1.03896 6.60057e-06 0)
(1.03896 4.39107e-06 0)
(1.03896 2.89585e-06 0)
(1.03896 1.84997e-06 0)
(1.03896 1.22427e-06 0)
(1.03896 7.68884e-07 0)
(1.03896 4.66418e-07 0)
(1.03896 2.951e-07 0)
(1.03896 2.00426e-07 0)
(1.03896 5.99395e-08 0)
(1.03896 8.94306e-09 0)
(1.03896 -4.72223e-08 0)
(1.03896 -5.17132e-08 0)
(1.03896 -5.04938e-08 0)
(1.03896 -3.65125e-08 0)
(1.03896 -1.04867e-08 0)
(1.03896 7.76402e-08 0)
(1.03896 1.16984e-07 0)
(1.03896 1.09844e-07 0)
(1.03896 1.20771e-07 0)
(1.03896 1.25144e-07 0)
(1.03896 1.25331e-07 0)
(1.03896 1.15532e-07 0)
(1.03896 8.1429e-08 0)
(1.03896 6.26618e-08 0)
(1.03896 4.60025e-08 0)
(1.03896 5.98118e-08 0)
(1.03896 6.29815e-08 0)
(1.03896 5.45811e-08 0)
(1.03896 3.48141e-08 0)
(1.03896 2.26452e-08 0)
(1.03896 2.26652e-08 0)
(1.03896 4.25717e-08 0)
(1.03896 4.7711e-08 0)
(1.03896 5.90133e-08 0)
(1.03896 6.25856e-08 0)
(1.03896 4.25932e-08 0)
(1.03896 3.12726e-08 0)
(1.03896 1.2043e-08 0)
(1.03896 -2.54953e-08 0)
(1.03896 -6.41033e-08 0)
(1.03896 -7.69557e-08 0)
(1.03896 -8.71745e-08 0)
(1.03896 -1.01255e-07 0)
(1.03896 -1.04197e-07 0)
(1.03896 -9.63539e-08 0)
(1.03896 -7.655e-08 0)
(1.03896 -5.60124e-08 0)
(1.03896 -3.56138e-08 0)
(1.03896 -3.76689e-09 0)
(1.03896 3.24111e-08 0)
(1.03896 6.11973e-08 0)
(1.03896 5.96617e-08 0)
(1.03896 6.90117e-08 0)
(1.03896 8.44417e-08 0)
(1.03896 1.16245e-07 0)
(1.03896 1.39755e-07 0)
(1.03896 1.51953e-07 0)
(1.03896 1.83673e-07 0)
(1.03896 2.7044e-07 0)
(1.03896 4.33596e-07 0)
(1.03896 6.78652e-07 0)
(1.03896 1.04164e-06 0)
(1.03896 1.58377e-06 0)
(1.03896 2.39601e-06 0)
(1.03896 3.63461e-06 0)
(1.03896 5.41475e-06 0)
(1.03896 8.05192e-06 0)
(1.03896 1.18007e-05 0)
(1.03896 1.79547e-05 0)
(1.03897 2.6835e-05 0)
(1.03896 4.62896e-05 0)
(1.03897 7.84077e-05 0)
(1.03896 0.000211179 0)
(1.03901 0.000547386 0)
(1.03912 0.00191876 0)
(1.03982 0.00380289 0)
(0.971078 0.0401804 0)
(1.05354 0.0228707 0)
(1.02732 0.00644155 0)
(1.04222 0.000292198 0)
(1.03584 -0.000355396 0)
(1.03864 0.000230126 0)
(1.03758 0.000438061 0)
(1.03828 0.000526029 0)
(1.03822 0.000468729 0)
(1.03847 0.000412668 0)
(1.03854 0.000343394 0)
(1.03866 0.000284128 0)