/*--------------------------------*- C++ -*----------------------------------*\
| =========                 |                                                 |
| \\      /  F ield         | OpenFOAM: The Open Source CFD Toolbox           |
|  \\    /   O peration     | Version:  5.x                                   |
|   \\  /    A nd           | Web:      www.OpenFOAM.org                      |
|    \\/     M anipulation  |                                                 |
\*---------------------------------------------------------------------------*/
FoamFile
{
    version     2.0;
    format      ascii;
    class       volScalarField;
    location    "1.5";
    object      p;
}
// * * * * * * * * * * * * * * * * * * * * * * * * * * * * * * * * * * * * * //

dimensions      [0 2 -2 0 0 0 0];

internalField   nonuniform List<scalar> 
4000
(
427.065
413.829
409.773
404.497
399.811
395.022
390.419
385.873
381.416
377.014
372.662
368.348
364.066
359.809
355.572
351.351
347.143
342.947
338.758
334.577
330.4
326.228
322.06
317.894
313.731
309.569
305.408
301.249
297.09
292.932
288.774
284.617
280.46
276.304
272.147
267.991
263.835
259.679
255.523
251.367
247.211
243.055
238.899
234.743
230.587
226.431
222.275
218.119
213.963
209.807
205.652
201.496
197.34
193.184
189.028
184.872
180.716
176.561
172.405
168.249
164.093
159.937
155.781
151.625
147.469
143.313
139.157
135.001
130.845
126.69
122.534
118.378
114.222
110.066
105.91
101.754
97.5977
93.4418
89.2858
85.1299
80.9739
76.818
72.6621
68.5063
64.3505
60.1948
56.0392
51.8837
47.7285
43.5737
39.4195
35.2661
31.1139
26.9636
22.8158
18.6714
14.5313
10.393
6.27131
2.14866
424.618
413.739
409.623
404.309
399.622
394.831
390.227
385.681
381.224
376.821
372.469
368.154
363.872
359.614
355.377
351.156
346.949
342.752
338.563
334.381
330.205
326.033
321.865
317.699
313.535
309.373
305.213
301.053
296.895
292.737
288.579
284.422
280.265
276.109
271.952
267.796
263.64
259.483
255.327
251.171
247.015
242.859
238.703
234.548
230.392
226.236
222.08
217.924
213.768
209.612
205.456
201.3
197.145
192.989
188.833
184.677
180.521
176.365
172.209
168.054
163.898
159.742
155.586
151.43
147.274
143.118
138.962
134.806
130.65
126.494
122.338
118.182
114.026
109.87
105.714
101.558
97.4024
93.2465
89.0905
84.9346
80.7786
76.6227
72.4669
68.311
64.1552
59.9995
55.8439
51.6884
47.5332
43.3784
39.2242
35.0708
30.9186
26.7683
22.6205
18.476
14.3361
10.1984
6.07794
1.96704
423.336
413.735
409.575
404.23
399.543
394.748
390.144
385.597
381.139
376.736
372.383
368.069
363.786
359.528
355.291
351.07
346.862
342.665
338.476
334.295
330.118
325.946
321.778
317.612
313.448
309.287
305.126
300.966
296.808
292.65
288.492
284.335
280.178
276.022
271.865
267.709
263.553
259.396
255.24
251.084
246.928
242.772
238.617
234.461
230.305
226.149
221.993
217.837
213.681
209.525
205.369
201.214
197.058
192.902
188.746
184.59
180.434
176.278
172.122
167.967
163.811
159.655
155.499
151.343
147.187
143.031
138.875
134.719
130.563
126.407
122.251
118.095
113.939
109.783
105.627
101.471
97.3155
93.1596
89.0036
84.8477
80.6917
76.5358
72.3799
68.2241
64.0683
59.9126
55.757
51.6015
47.4463
43.2915
39.1372
34.9838
30.8316
26.6813
22.5335
18.389
14.2492
10.1116
5.99181
1.88592
422.818
413.827
409.612
404.247
399.56
394.76
390.157
385.608
381.15
376.746
372.393
368.078
363.795
359.537
355.3
351.079
346.871
342.674
338.485
334.303
330.127
325.955
321.786
317.621
313.457
309.295
305.134
300.975
296.816
292.658
288.501
284.343
280.187
276.03
271.874
267.717
263.561
259.405
255.249
251.093
246.937
242.781
238.625
234.469
230.313
226.157
222.001
217.845
213.69
209.534
205.378
201.222
197.066
192.91
188.754
184.598
180.443
176.287
172.131
167.975
163.819
159.663
155.507
151.351
147.195
143.039
138.884
134.728
130.572
126.416
122.26
118.104
113.948
109.792
105.636
101.48
97.3239
93.168
89.012
84.8561
80.7001
76.5442
72.3883
68.2325
64.0767
59.921
55.7654
51.6099
47.4547
43.2999
39.1456
34.9922
30.84
26.6896
22.5418
18.3974
14.2577
10.1204
5.99942
1.89072
422.479
413.938
409.676
404.293
399.604
394.799
390.196
385.646
381.188
376.784
372.431
368.116
363.832
359.574
355.337
351.116
346.908
342.71
338.522
334.34
330.163
325.991
321.823
317.657
313.493
309.331
305.171
301.011
296.853
292.695
288.537
284.38
280.223
276.066
271.91
267.754
263.597
259.441
255.285
251.129
246.973
242.817
238.661
234.505
230.349
226.194
222.038
217.882
213.726
209.57
205.414
201.258
197.102
192.947
188.791
184.635
180.479
176.323
172.167
168.011
163.856
159.7
155.544
151.388
147.232
143.076
138.92
134.764
130.608
126.452
122.296
118.14
113.984
109.828
105.672
101.516
97.3603
93.2044
89.0484
84.8925
80.7365
76.5806
72.4247
68.2689
64.1131
59.9574
55.8018
51.6463
47.4911
43.3363
39.182
35.0286
30.8763
26.7259
22.5782
18.4338
14.2942
10.1566
6.03479
1.92176
422.174
414.033
409.743
404.343
399.649
394.84
390.237
385.687
381.229
376.824
372.471
368.155
363.871
359.613
355.375
351.154
346.946
342.749
338.56
334.378
330.202
326.03
321.861
317.695
313.532
309.37
305.209
301.05
296.891
292.733
288.575
284.418
280.261
276.105
271.948
267.792
263.636
259.48
255.324
251.168
247.012
242.856
238.7
234.544
230.388
226.232
222.076
217.92
213.764
209.608
205.453
201.297
197.141
192.985
188.829
184.673
180.517
176.362
172.206
168.05
163.894
159.738
155.582
151.426
147.27
143.114
138.958
134.802
130.646
126.49
122.335
118.179
114.023
109.867
105.711
101.555
97.3987
93.2427
89.0868
84.9308
80.7749
76.619
72.4631
68.3073
64.1515
59.9957
55.8401
51.6847
47.5295
43.3746
39.2203
35.0669
30.9147
26.7643
22.6165
18.4721
14.3325
10.1954
6.0725
1.95502
421.903
414.111
409.806
404.391
399.691
394.879
390.276
385.725
381.267
376.862
372.508
368.193
363.909
359.65
355.413
351.191
346.983
342.786
338.597
334.415
330.239
326.067
321.898
317.732
313.568
309.406
305.246
301.086
296.928
292.77
288.612
284.455
280.298
276.141
271.985
267.829
263.672
259.516
255.36
251.204
247.048
242.892
238.736
234.58
230.425
226.269
222.113
217.957
213.801
209.645
205.489
201.333
197.177
193.022
188.866
184.71
180.554
176.398
172.242
168.086
163.931
159.775
155.619
151.463
147.307
143.151
138.995
134.839
130.683
126.527
122.371
118.215
114.059
109.903
105.747
101.591
97.4354
93.2794
89.1234
84.9675
80.8116
76.6556
72.4998
68.3439
64.1881
60.0324
55.8768
51.7213
47.5661
43.4113
39.257
35.1035
30.9513
26.8009
22.6531
18.5087
14.3693
10.2327
6.10834
1.98644
421.667
414.174
409.866
404.437
399.731
394.915
390.313
385.761
381.303
376.898
372.544
368.228
363.944
359.686
355.448
351.226
347.018
342.821
338.632
334.45
330.273
326.101
321.933
317.767
313.603
309.441
305.281
301.121
296.962
292.804
288.647
284.49
280.333
276.176
272.02
267.863
263.707
259.551
255.395
251.239
247.083
242.927
238.771
234.615
230.459
226.303
222.147
217.992
213.836
209.68
205.524
201.368
197.212
193.056
188.9
184.745
180.589
176.433
172.277
168.121
163.965
159.809
155.653
151.497
147.342
143.186
139.03
134.874
130.718
126.562
122.406
118.25
114.094
109.938
105.782
101.626
97.47
93.3141
89.1581
85.0022
80.8462
76.6903
72.5344
68.3786
64.2228
60.0671
55.9114
51.756
47.6008
43.4459
39.2916
35.1382
30.9859
26.8355
22.6877
18.5434
14.404
10.2681
6.14211
2.01584
421.462
414.226
409.921
404.48
399.768
394.949
390.347
385.795
381.336
376.931
372.577
368.261
363.977
359.718
355.48
351.259
347.051
342.853
338.664
334.482
330.306
326.134
321.965
317.799
313.635
309.473
305.313
301.153
296.995
292.837
288.679
284.522
280.365
276.208
272.052
267.896
263.739
259.583
255.427
251.271
247.115
242.959
238.803
234.647
230.491
226.336
222.18
218.024
213.868
209.712
205.556
201.4
197.244
193.089
188.933
184.777
180.621
176.465
172.309
168.153
163.998
159.842
155.686
151.53
147.374
143.218
139.062
134.906
130.75
126.594
122.438
118.282
114.126
109.97
105.814
101.658
97.5023
93.3464
89.1904
85.0345
80.8785
76.7226
72.5667
68.4109
64.2551
60.0993
55.9437
51.7883
47.6331
43.4782
39.3239
35.1704
31.0182
26.8678
22.7199
18.5757
14.4364
10.3011
6.17358
2.04309
421.282
414.268
409.971
404.521
399.802
394.979
390.378
385.825
381.367
376.961
372.607
368.291
364.007
359.748
355.51
351.289
347.08
342.883
338.694
334.512
330.336
326.163
321.995
317.829
313.665
309.503
305.343
301.183
297.024
292.866
288.709
284.552
280.395
276.238
272.082
267.925
263.769
259.613
255.457
251.301
247.145
242.989
238.833
234.677
230.521
226.365
222.209
218.053
213.898
209.742
205.586
201.43
197.274
193.118
188.962
184.807
180.651
176.495
172.339
168.183
164.027
159.871
155.715
151.559
147.403
143.248
139.092
134.936
130.78
126.624
122.468
118.312
114.156
110
105.844
101.688
97.532
93.376
89.2201
85.0641
80.9082
76.7523
72.5964
68.4405
64.2847
60.129
55.9734
51.8179
47.6627
43.5079
39.3536
35.2001
31.0478
26.8974
22.7495
18.6054
14.4661
10.3316
6.20252
2.06803
421.126
414.301
410.016
404.558
399.832
395.007
390.405
385.853
381.395
376.989
372.635
368.318
364.034
359.776
355.537
351.316
347.108
342.91
338.721
334.539
330.363
326.19
322.022
317.856
313.692
309.53
305.37
301.21
297.051
292.893
288.736
284.579
280.422
276.265
272.109
267.952
263.796
259.64
255.484
251.328
247.172
243.016
238.86
234.704
230.548
226.392
222.236
218.08
213.925
209.769
205.613
201.457
197.301
193.145
188.989
184.834
180.678
176.522
172.366
168.21
164.054
159.898
155.742
151.586
147.43
143.275
139.119
134.963
130.807
126.651
122.495
118.339
114.183
110.027
105.871
101.715
97.559
93.403
89.2471
85.0911
80.9352
76.7793
72.6234
68.4675
64.3117
60.156
56.0004
51.8449
47.6897
43.5348
39.3805
35.2271
31.0748
26.9243
22.7765
18.6324
14.4932
10.3594
6.22887
2.09062
420.99
414.328
410.056
404.592
399.859
395.032
390.43
385.877
381.42
377.013
372.66
368.343
364.059
359.8
355.562
351.34
347.132
342.934
338.745
334.563
330.387
326.215
322.046
317.88
313.716
309.554
305.394
301.234
297.076
292.918
288.76
284.603
280.446
276.289
272.133
267.977
263.82
259.664
255.508
251.352
247.196
243.04
238.884
234.728
230.572
226.417
222.261
218.105
213.949
209.793
205.637
201.481
197.325
193.17
189.014
184.858
180.702
176.546
172.39
168.234
164.078
159.923
155.767
151.611
147.455
143.299
139.143
134.987
130.831
126.675
122.519
118.363
114.207
110.051
105.895
101.739
97.5833
93.4273
89.2713
85.1154
80.9595
76.8035
72.6477
68.4918
64.336
60.1803
56.0246
51.8692
47.714
43.5591
39.4048
35.2513
31.099
26.9486
22.8007
18.6568
14.5175
10.3846
6.2526
2.1109
420.873
414.349
410.092
404.622
399.884
395.053
390.453
385.899
381.442
377.035
372.681
368.365
364.081
359.822
355.584
351.362
347.154
342.956
338.767
334.585
330.408
326.236
322.068
317.902
313.738
309.576
305.415
301.256
297.097
292.939
288.782
284.624
280.468
276.311
272.154
267.998
263.842
259.686
255.53
251.374
247.218
243.062
238.906
234.75
230.594
226.438
222.282
218.126
213.97
209.815
205.659
201.503
197.347
193.191
189.035
184.879
180.724
176.568
172.412
168.256
164.1
159.944
155.788
151.632
147.476
143.32
139.164
135.009
130.853
126.697
122.541
118.385
114.229
110.073
105.917
101.761
97.6048
93.4489
89.2929
85.137
80.9811
76.8251
72.6692
68.5134
64.3576
60.2018
56.0462
51.8908
47.7355
43.5807
39.4264
35.2729
31.1206
26.9702
22.8223
18.6784
14.5392
10.407
6.27372
2.12888
420.773
414.365
410.122
404.649
399.905
395.073
390.472
385.919
381.461
377.055
372.701
368.384
364.1
359.841
355.603
351.381
347.173
342.975
338.786
334.604
330.427
326.255
322.087
317.921
313.757
309.595
305.434
301.275
297.116
292.958
288.8
284.643
280.486
276.33
272.173
268.017
263.861
259.705
255.549
251.393
247.237
243.081
238.925
234.769
230.613
226.457
222.301
218.145
213.989
209.833
205.678
201.522
197.366
193.21
189.054
184.898
180.742
176.587
172.431
168.275
164.119
159.963
155.807
151.651
147.495
143.339
139.183
135.027
130.871
126.715
122.56
118.404
114.248
110.092
105.936
101.78
97.6237
93.4678
89.3118
85.1559
80.9999
76.844
72.6881
68.5323
64.3765
60.2207
56.0651
51.9097
47.7544
43.5996
39.4453
35.2918
31.1395
26.9891
22.8411
18.6973
14.5581
10.4267
6.29222
2.14458
420.69
414.378
410.149
404.672
399.923
395.089
390.488
385.935
381.478
377.071
372.717
368.401
364.116
359.857
355.619
351.397
347.189
342.991
338.802
334.62
330.444
326.271
322.103
317.937
313.773
309.611
305.45
301.291
297.132
292.974
288.817
284.659
280.503
276.346
272.19
268.033
263.877
259.721
255.565
251.409
247.253
243.097
238.941
234.785
230.629
226.473
222.317
218.161
214.006
209.85
205.694
201.538
197.382
193.226
189.07
184.914
180.759
176.603
172.447
168.291
164.135
159.979
155.823
151.667
147.511
143.355
139.2
135.044
130.888
126.732
122.576
118.42
114.264
110.108
105.952
101.796
97.6399
93.484
89.328
85.1721
81.0161
76.8602
72.7043
68.5485
64.3927
60.2369
56.0813
51.9258
47.7706
43.6158
39.4615
35.308
31.1557
27.0052
22.8573
18.7136
14.5744
10.4436
6.30809
2.15802
420.623
414.388
410.17
404.691
399.938
395.102
390.502
385.949
381.491
377.085
372.731
368.414
364.13
359.871
355.633
351.411
347.202
343.005
338.816
334.634
330.457
326.285
322.116
317.95
313.787
309.625
305.464
301.304
297.146
292.988
288.83
284.673
280.516
276.36
272.203
268.047
263.891
259.734
255.578
251.422
247.266
243.11
238.954
234.798
230.643
226.487
222.331
218.175
214.019
209.863
205.707
201.551
197.396
193.24
189.084
184.928
180.772
176.616
172.46
168.304
164.149
159.993
155.837
151.681
147.525
143.369
139.213
135.057
130.901
126.745
122.589
118.433
114.277
110.121
105.965
101.809
97.6534
93.4975
89.3415
85.1856
81.0296
76.8737
72.7178
68.562
64.4061
60.2504
56.0948
51.9393
47.7841
43.6293
39.475
35.3215
31.1692
27.0187
22.8708
18.7271
14.5879
10.4578
6.32133
2.1692
420.569
414.395
410.188
404.707
399.95
395.113
390.513
385.959
381.502
377.096
372.742
368.425
364.141
359.882
355.643
351.422
347.213
343.016
338.827
334.644
330.468
326.296
322.127
317.961
313.797
309.635
305.475
301.315
297.157
292.998
288.841
284.684
280.527
276.37
272.214
268.058
263.901
259.745
255.589
251.433
247.277
243.121
238.965
234.809
230.653
226.497
222.342
218.186
214.03
209.874
205.718
201.562
197.406
193.25
189.095
184.939
180.783
176.627
172.471
168.315
164.159
160.003
155.848
151.692
147.536
143.38
139.224
135.068
130.912
126.756
122.6
118.444
114.288
110.132
105.976
101.82
97.6642
93.5083
89.3523
85.1964
81.0404
76.8845
72.7286
68.5727
64.4169
60.2612
56.1056
51.9501
47.7949
43.6401
39.4857
35.3323
31.18
27.0295
22.8816
18.7379
14.5988
10.4691
6.33192
2.17814
420.53
414.4
410.2
404.718
399.959
395.121
390.521
385.968
381.51
377.104
372.75
368.433
364.149
359.89
355.652
351.43
347.221
343.024
338.835
334.653
330.476
326.304
322.135
317.969
313.805
309.643
305.483
301.323
297.165
293.007
288.849
284.692
280.535
276.378
272.222
268.066
263.909
259.753
255.597
251.441
247.285
243.129
238.973
234.817
230.661
226.506
222.35
218.194
214.038
209.882
205.726
201.57
197.414
193.259
189.103
184.947
180.791
176.635
172.479
168.323
164.167
160.012
155.856
151.7
147.544
143.388
139.232
135.076
130.92
126.764
122.608
118.452
114.296
110.14
105.984
101.828
97.6723
93.5164
89.3604
85.2045
81.0485
76.8926
72.7367
68.5808
64.425
60.2693
56.1137
51.9582
47.803
43.6481
39.4938
35.3404
31.1881
27.0376
22.8897
18.746
14.6069
10.4776
6.33987
2.18484
420.504
414.403
410.209
404.726
399.965
395.127
390.526
385.973
381.516
377.109
372.755
368.439
364.154
359.895
355.657
351.435
347.227
343.029
338.84
334.658
330.481
326.309
322.14
317.975
313.811
309.649
305.488
301.329
297.17
293.012
288.854
284.697
280.54
276.384
272.227
268.071
263.915
259.759
255.603
251.447
247.291
243.135
238.979
234.823
230.667
226.511
222.355
218.199
214.043
209.887
205.732
201.576
197.42
193.264
189.108
184.952
180.796
176.64
172.485
168.329
164.173
160.017
155.861
151.705
147.549
143.393
139.237
135.081
130.925
126.769
122.613
118.458
114.302
110.146
105.99
101.834
97.6777
93.5217
89.3658
85.2098
81.0539
76.898
72.7421
68.5862
64.4304
60.2747
56.1191
51.9636
47.8084
43.6535
39.4992
35.3457
31.1934
27.043
22.895
18.7515
14.6123
10.4833
6.34518
2.1893
420.491
414.405
410.213
404.73
399.968
395.129
390.529
385.976
381.519
377.112
372.758
368.441
364.157
359.898
355.66
351.438
347.229
343.032
338.843
334.661
330.484
326.312
322.143
317.977
313.814
309.652
305.491
301.331
297.173
293.015
288.857
284.7
280.543
276.387
272.23
268.074
263.918
259.761
255.605
251.449
247.293
243.137
238.981
234.825
230.67
226.514
222.358
218.202
214.046
209.89
205.734
201.578
197.423
193.267
189.111
184.955
180.799
176.643
172.487
168.331
164.176
160.02
155.864
151.708
147.552
143.396
139.24
135.084
130.928
126.772
122.616
118.46
114.304
110.148
105.992
101.836
97.6804
93.5244
89.3685
85.2125
81.0566
76.9007
72.7448
68.5889
64.4331
60.2774
56.1218
51.9663
47.8111
43.6562
39.5019
35.3484
31.1961
27.0457
22.8977
18.7542
14.615
10.4861
6.34783
2.19153
420.491
414.405
410.213
404.73
399.968
395.129
390.529
385.976
381.519
377.112
372.758
368.441
364.157
359.898
355.66
351.438
347.229
343.032
338.843
334.661
330.484
326.312
322.143
317.977
313.814
309.652
305.491
301.331
297.173
293.015
288.857
284.7
280.543
276.387
272.23
268.074
263.918
259.761
255.605
251.449
247.293
243.137
238.981
234.825
230.67
226.514
222.358
218.202
214.046
209.89
205.734
201.578
197.423
193.267
189.111
184.955
180.799
176.643
172.487
168.331
164.176
160.02
155.864
151.708
147.552
143.396
139.24
135.084
130.928
126.772
122.616
118.46
114.304
110.148
105.992
101.836
97.6804
93.5244
89.3685
85.2125
81.0566
76.9007
72.7448
68.5889
64.4331
60.2774
56.1218
51.9663
47.8111
43.6562
39.5019
35.3484
31.1961
27.0457
22.8977
18.7542
14.615
10.4861
6.34783
2.19153
420.504
414.403
410.209
404.726
399.965
395.127
390.526
385.973
381.516
377.109
372.755
368.439
364.154
359.895
355.657
351.435
347.227
343.029
338.84
334.658
330.481
326.309
322.14
317.975
313.811
309.649
305.488
301.329
297.17
293.012
288.854
284.697
280.54
276.384
272.227
268.071
263.915
259.759
255.603
251.447
247.291
243.135
238.979
234.823
230.667
226.511
222.355
218.199
214.043
209.887
205.732
201.576
197.42
193.264
189.108
184.952
180.796
176.64
172.485
168.329
164.173
160.017
155.861
151.705
147.549
143.393
139.237
135.081
130.925
126.769
122.613
118.458
114.302
110.146
105.99
101.834
97.6777
93.5217
89.3658
85.2098
81.0539
76.898
72.7421
68.5862
64.4304
60.2747
56.1191
51.9636
47.8084
43.6535
39.4992
35.3457
31.1934
27.043
22.895
18.7514
14.6123
10.4833
6.34518
2.1893
420.53
414.4
410.2
404.718
399.959
395.121
390.521
385.968
381.51
377.104
372.75
368.433
364.149
359.89
355.652
351.43
347.221
343.024
338.835
334.653
330.476
326.304
322.135
317.969
313.805
309.643
305.483
301.323
297.165
293.007
288.849
284.692
280.535
276.378
272.222
268.066
263.909
259.753
255.597
251.441
247.285
243.129
238.973
234.817
230.661
226.506
222.35
218.194
214.038
209.882
205.726
201.57
197.414
193.259
189.103
184.947
180.791
176.635
172.479
168.323
164.167
160.012
155.856
151.7
147.544
143.388
139.232
135.076
130.92
126.764
122.608
118.452
114.296
110.14
105.984
101.828
97.6723
93.5163
89.3604
85.2045
81.0485
76.8926
72.7367
68.5808
64.425
60.2693
56.1137
51.9582
47.803
43.6481
39.4938
35.3404
31.1881
27.0376
22.8897
18.746
14.6069
10.4776
6.33987
2.18484
420.569
414.395
410.188
404.707
399.95
395.113
390.513
385.959
381.502
377.096
372.742
368.425
364.141
359.882
355.643
351.422
347.213
343.016
338.827
334.644
330.468
326.296
322.127
317.961
313.797
309.635
305.475
301.315
297.157
292.998
288.841
284.684
280.527
276.37
272.214
268.058
263.901
259.745
255.589
251.433
247.277
243.121
238.965
234.809
230.653
226.497
222.342
218.186
214.03
209.874
205.718
201.562
197.406
193.25
189.095
184.939
180.783
176.627
172.471
168.315
164.159
160.003
155.848
151.692
147.536
143.38
139.224
135.068
130.912
126.756
122.6
118.444
114.288
110.132
105.976
101.82
97.6642
93.5083
89.3523
85.1964
81.0404
76.8845
72.7286
68.5727
64.4169
60.2612
56.1056
51.9501
47.7949
43.6401
39.4857
35.3323
31.18
27.0295
22.8816
18.7379
14.5988
10.4691
6.33192
2.17814
420.623
414.388
410.17
404.691
399.938
395.102
390.502
385.949
381.491
377.085
372.731
368.414
364.13
359.871
355.633
351.411
347.202
343.005
338.816
334.634
330.457
326.285
322.116
317.95
313.787
309.625
305.464
301.304
297.146
292.988
288.83
284.673
280.516
276.36
272.203
268.047
263.891
259.734
255.578
251.422
247.266
243.11
238.954
234.798
230.643
226.487
222.331
218.175
214.019
209.863
205.707
201.551
197.396
193.24
189.084
184.928
180.772
176.616
172.46
168.304
164.149
159.993
155.837
151.681
147.525
143.369
139.213
135.057
130.901
126.745
122.589
118.433
114.277
110.121
105.965
101.809
97.6534
93.4975
89.3415
85.1856
81.0296
76.8737
72.7178
68.562
64.4061
60.2504
56.0948
51.9393
47.7841
43.6293
39.475
35.3215
31.1692
27.0187
22.8708
18.7271
14.5879
10.4578
6.32133
2.1692
420.69
414.378
410.149
404.672
399.923
395.089
390.488
385.935
381.478
377.071
372.717
368.401
364.116
359.857
355.619
351.397
347.189
342.991
338.802
334.62
330.444
326.271
322.103
317.937
313.773
309.611
305.451
301.291
297.132
292.974
288.817
284.659
280.503
276.346
272.19
268.033
263.877
259.721
255.565
251.409
247.253
243.097
238.941
234.785
230.629
226.473
222.317
218.161
214.006
209.85
205.694
201.538
197.382
193.226
189.07
184.914
180.759
176.603
172.447
168.291
164.135
159.979
155.823
151.667
147.511
143.355
139.2
135.044
130.888
126.732
122.576
118.42
114.264
110.108
105.952
101.796
97.6399
93.484
89.328
85.1721
81.0161
76.8602
72.7043
68.5485
64.3927
60.2369
56.0813
51.9258
47.7706
43.6158
39.4615
35.308
31.1557
27.0053
22.8573
18.7136
14.5744
10.4436
6.30809
2.15802
420.773
414.365
410.122
404.649
399.905
395.073
390.472
385.919
381.461
377.055
372.701
368.384
364.1
359.841
355.603
351.381
347.173
342.975
338.786
334.604
330.427
326.255
322.086
317.921
313.757
309.595
305.434
301.275
297.116
292.958
288.8
284.643
280.486
276.33
272.173
268.017
263.861
259.705
255.549
251.393
247.237
243.081
238.925
234.769
230.613
226.457
222.301
218.145
213.989
209.833
205.678
201.522
197.366
193.21
189.054
184.898
180.742
176.587
172.431
168.275
164.119
159.963
155.807
151.651
147.495
143.339
139.183
135.027
130.871
126.715
122.56
118.404
114.248
110.092
105.936
101.78
97.6237
93.4678
89.3118
85.1559
80.9999
76.844
72.6881
68.5323
64.3765
60.2207
56.0651
51.9096
47.7544
43.5996
39.4453
35.2918
31.1395
26.9891
22.8412
18.6973
14.5581
10.4267
6.29222
2.14458
420.873
414.349
410.092
404.622
399.884
395.053
390.453
385.899
381.442
377.035
372.681
368.365
364.081
359.822
355.584
351.362
347.154
342.956
338.767
334.585
330.408
326.236
322.068
317.902
313.738
309.576
305.415
301.256
297.097
292.939
288.782
284.624
280.468
276.311
272.154
267.998
263.842
259.686
255.53
251.374
247.218
243.062
238.906
234.75
230.594
226.438
222.282
218.126
213.97
209.815
205.659
201.503
197.347
193.191
189.035
184.879
180.724
176.568
172.412
168.256
164.1
159.944
155.788
151.632
147.476
143.32
139.164
135.009
130.853
126.697
122.541
118.385
114.229
110.073
105.917
101.761
97.6048
93.4489
89.2929
85.137
80.981
76.8251
72.6692
68.5134
64.3576
60.2018
56.0462
51.8908
47.7355
43.5807
39.4264
35.2729
31.1206
26.9702
22.8223
18.6784
14.5392
10.407
6.27372
2.12888
420.99
414.328
410.056
404.592
399.859
395.032
390.43
385.877
381.42
377.013
372.66
368.343
364.059
359.8
355.562
351.34
347.132
342.934
338.745
334.563
330.387
326.215
322.046
317.88
313.716
309.554
305.394
301.234
297.076
292.918
288.76
284.603
280.446
276.289
272.133
267.977
263.82
259.664
255.508
251.352
247.196
243.04
238.884
234.728
230.572
226.416
222.261
218.105
213.949
209.793
205.637
201.481
197.325
193.17
189.014
184.858
180.702
176.546
172.39
168.234
164.078
159.922
155.767
151.611
147.455
143.299
139.143
134.987
130.831
126.675
122.519
118.363
114.207
110.051
105.895
101.739
97.5832
93.4273
89.2713
85.1154
80.9595
76.8035
72.6477
68.4918
64.336
60.1803
56.0246
51.8692
47.714
43.5591
39.4048
35.2513
31.0991
26.9486
22.8008
18.6568
14.5175
10.3846
6.2526
2.1109
421.126
414.301
410.016
404.558
399.832
395.007
390.405
385.853
381.395
376.989
372.635
368.318
364.034
359.776
355.537
351.316
347.108
342.91
338.721
334.539
330.362
326.19
322.022
317.856
313.692
309.53
305.37
301.21
297.051
292.893
288.736
284.579
280.422
276.265
272.109
267.952
263.796
259.64
255.484
251.328
247.172
243.016
238.86
234.704
230.548
226.392
222.236
218.08
213.925
209.769
205.613
201.457
197.301
193.145
188.989
184.834
180.678
176.522
172.366
168.21
164.054
159.898
155.742
151.586
147.43
143.275
139.119
134.963
130.807
126.651
122.495
118.339
114.183
110.027
105.871
101.715
97.559
93.403
89.2471
85.0911
80.9352
76.7793
72.6234
68.4675
64.3117
60.156
56.0004
51.8449
47.6897
43.5348
39.3805
35.2271
31.0748
26.9244
22.7765
18.6324
14.4932
10.3594
6.22887
2.09062
421.282
414.268
409.971
404.521
399.802
394.979
390.378
385.825
381.367
376.961
372.607
368.291
364.007
359.748
355.51
351.289
347.08
342.883
338.694
334.512
330.335
326.163
321.995
317.829
313.665
309.503
305.343
301.183
297.024
292.866
288.709
284.552
280.395
276.238
272.082
267.925
263.769
259.613
255.457
251.301
247.145
242.989
238.833
234.677
230.521
226.365
222.209
218.053
213.898
209.742
205.586
201.43
197.274
193.118
188.962
184.807
180.651
176.495
172.339
168.183
164.027
159.871
155.715
151.559
147.403
143.248
139.092
134.936
130.78
126.624
122.468
118.312
114.156
110
105.844
101.688
97.532
93.376
89.2201
85.0641
80.9082
76.7523
72.5964
68.4405
64.2847
60.129
55.9734
51.8179
47.6627
43.5079
39.3536
35.2001
31.0479
26.8974
22.7496
18.6054
14.4661
10.3316
6.20253
2.06803
421.462
414.226
409.921
404.48
399.768
394.949
390.347
385.795
381.336
376.931
372.577
368.261
363.977
359.718
355.48
351.259
347.051
342.853
338.664
334.482
330.306
326.134
321.965
317.799
313.635
309.474
305.313
301.153
296.995
292.837
288.679
284.522
280.365
276.208
272.052
267.896
263.739
259.583
255.427
251.271
247.115
242.959
238.803
234.647
230.491
226.336
222.18
218.024
213.868
209.712
205.556
201.4
197.244
193.089
188.933
184.777
180.621
176.465
172.309
168.153
163.997
159.842
155.686
151.53
147.374
143.218
139.062
134.906
130.75
126.594
122.438
118.282
114.126
109.97
105.814
101.658
97.5023
93.3464
89.1904
85.0345
80.8785
76.7226
72.5667
68.4109
64.2551
60.0993
55.9437
51.7883
47.6331
43.4782
39.3239
35.1705
31.0182
26.8678
22.7199
18.5757
14.4364
10.3011
6.17358
2.04309
421.667
414.174
409.866
404.437
399.731
394.915
390.313
385.761
381.303
376.898
372.544
368.228
363.944
359.686
355.448
351.226
347.018
342.821
338.632
334.45
330.273
326.101
321.933
317.767
313.603
309.441
305.281
301.121
296.962
292.804
288.647
284.49
280.333
276.176
272.02
267.863
263.707
259.551
255.395
251.239
247.083
242.927
238.771
234.615
230.459
226.303
222.147
217.991
213.836
209.68
205.524
201.368
197.212
193.056
188.9
184.745
180.589
176.433
172.277
168.121
163.965
159.809
155.653
151.497
147.341
143.186
139.03
134.874
130.718
126.562
122.406
118.25
114.094
109.938
105.782
101.626
97.47
93.3141
89.1581
85.0022
80.8462
76.6903
72.5344
68.3786
64.2228
60.067
55.9114
51.756
47.6008
43.4459
39.2916
35.1382
30.9859
26.8355
22.6877
18.5434
14.404
10.2681
6.14212
2.01585
421.903
414.111
409.806
404.391
399.691
394.879
390.276
385.725
381.267
376.862
372.508
368.193
363.909
359.65
355.413
351.191
346.983
342.786
338.597
334.415
330.239
326.067
321.898
317.732
313.568
309.407
305.246
301.086
296.928
292.77
288.612
284.455
280.298
276.141
271.985
267.829
263.672
259.516
255.36
251.204
247.048
242.892
238.736
234.58
230.424
226.269
222.113
217.957
213.801
209.645
205.489
201.333
197.177
193.022
188.866
184.71
180.554
176.398
172.242
168.086
163.93
159.775
155.619
151.463
147.307
143.151
138.995
134.839
130.683
126.527
122.371
118.215
114.059
109.903
105.747
101.591
97.4353
93.2794
89.1234
84.9675
80.8116
76.6556
72.4998
68.3439
64.1881
60.0324
55.8768
51.7213
47.5661
43.4113
39.257
35.1035
30.9513
26.8009
22.6531
18.5087
14.3693
10.2327
6.10835
1.98644
422.174
414.033
409.743
404.343
399.649
394.84
390.237
385.687
381.229
376.824
372.471
368.155
363.871
359.613
355.375
351.154
346.946
342.749
338.56
334.378
330.202
326.03
321.861
317.695
313.532
309.37
305.209
301.05
296.891
292.733
288.575
284.418
280.261
276.105
271.948
267.792
263.636
259.48
255.324
251.168
247.012
242.856
238.7
234.544
230.388
226.232
222.076
217.92
213.764
209.608
205.453
201.297
197.141
192.985
188.829
184.673
180.517
176.361
172.206
168.05
163.894
159.738
155.582
151.426
147.27
143.114
138.958
134.802
130.646
126.49
122.334
118.179
114.023
109.867
105.711
101.555
97.3987
93.2427
89.0868
84.9308
80.7749
76.619
72.4631
68.3072
64.1514
59.9957
55.8401
51.6847
47.5295
43.3746
39.2204
35.0669
30.9147
26.7643
22.6165
18.4721
14.3325
10.1954
6.07251
1.95503
422.479
413.938
409.676
404.293
399.604
394.799
390.196
385.646
381.188
376.784
372.431
368.116
363.832
359.574
355.337
351.116
346.908
342.71
338.522
334.34
330.163
325.991
321.823
317.657
313.493
309.331
305.171
301.011
296.853
292.695
288.537
284.38
280.223
276.066
271.91
267.754
263.597
259.441
255.285
251.129
246.973
242.817
238.661
234.505
230.349
226.194
222.038
217.882
213.726
209.57
205.414
201.258
197.102
192.947
188.791
184.635
180.479
176.323
172.167
168.011
163.855
159.7
155.544
151.388
147.232
143.076
138.92
134.764
130.608
126.452
122.296
118.14
113.984
109.828
105.672
101.516
97.3603
93.2044
89.0484
84.8925
80.7365
76.5806
72.4247
68.2689
64.1131
59.9574
55.8017
51.6463
47.4911
43.3363
39.182
35.0286
30.8764
26.726
22.5782
18.4338
14.2942
10.1567
6.03479
1.92176
422.818
413.827
409.612
404.247
399.56
394.76
390.157
385.608
381.15
376.746
372.393
368.078
363.795
359.537
355.3
351.079
346.871
342.674
338.485
334.303
330.127
325.955
321.786
317.621
313.457
309.295
305.134
300.975
296.816
292.658
288.501
284.343
280.187
276.03
271.874
267.717
263.561
259.405
255.249
251.093
246.937
242.781
238.625
234.469
230.313
226.157
222.001
217.845
213.69
209.534
205.378
201.222
197.066
192.91
188.754
184.598
180.443
176.287
172.131
167.975
163.819
159.663
155.507
151.351
147.195
143.039
138.884
134.728
130.572
126.416
122.26
118.104
113.948
109.792
105.636
101.48
97.3239
93.1679
89.012
84.8561
80.7001
76.5442
72.3883
68.2325
64.0767
59.921
55.7653
51.6099
47.4547
43.2999
39.1456
34.9922
30.84
26.6896
22.5419