/*--------------------------------*- C++ -*----------------------------------*\
| =========                 |                                                 |
| \\      /  F ield         | OpenFOAM: The Open Source CFD Toolbox           |
|  \\    /   O peration     | Version:  5.x                                   |
|   \\  /    A nd           | Web:      www.OpenFOAM.org                      |
|    \\/     M anipulation  |                                                 |
\*---------------------------------------------------------------------------*/
FoamFile
{
    version     2.0;
    format      ascii;
    class       volScalarField;
    location    "1.5";
    object      pB;
}
// * * * * * * * * * * * * * * * * * * * * * * * * * * * * * * * * * * * * * //

dimensions      [1 1 -3 0 0 -1 0];

internalField   nonuniform List<scalar> 
4000
(
25.6436
55.5747
70.9458
75.9262
74.9832
70.1932
63.4987
56.0141
48.5077
41.3963
34.9128
29.1522
24.1325
19.8226
16.166
13.0934
10.5325
8.41291
6.66918
5.24238
4.08054
3.13862
2.37811
1.76638
1.2761
0.884438
0.572602
0.325048
0.129121
-0.0255138
-0.147234
-0.24278
-0.317601
-0.376048
-0.421589
-0.457006
-0.484472
-0.505746
-0.522175
-0.534849
-0.544603
-0.552106
-0.557855
-0.562267
-0.56563
-0.568205
-0.570158
-0.571648
-0.572771
-0.573619
-0.574254
-0.574732
-0.575078
-0.575339
-0.575521
-0.575654
-0.57574
-0.575803
-0.575836
-0.575856
-0.575855
-0.57585
-0.575825
-0.575799
-0.575749
-0.575696
-0.575615
-0.575522
-0.575395
-0.575236
-0.575025
-0.57475
-0.574382
-0.573898
-0.573244
-0.572376
-0.571211
-0.569659
-0.56759
-0.564838
-0.561186
-0.556356
-0.549986
-0.54164
-0.530747
-0.516662
-0.498581
-0.475636
-0.446895
-0.411524
-0.368991
-0.319475
-0.26454
-0.208165
-0.158342
-0.128666
-0.138214
-0.202776
-0.29975
-0.29842
27.4895
55.5597
70.3027
75.2358
74.3264
69.6252
63.0153
55.6108
48.1737
41.123
34.6915
28.9753
23.9931
19.7147
16.0843
13.0333
10.4903
8.38524
6.65334
5.23609
4.08193
3.14616
2.39055
1.7827
1.29549
0.906247
0.596306
0.350232
0.155458
0.00171745
-0.11931
-0.214324
-0.288734
-0.346868
-0.392168
-0.427404
-0.45473
-0.475899
-0.492248
-0.504863
-0.51457
-0.522038
-0.527761
-0.532153
-0.535502
-0.538065
-0.54001
-0.541494
-0.542611
-0.543458
-0.544088
-0.544565
-0.544909
-0.545168
-0.545348
-0.545482
-0.545567
-0.545631
-0.545663
-0.545684
-0.545682
-0.545678
-0.545652
-0.545627
-0.545576
-0.545524
-0.545443
-0.545351
-0.545224
-0.545067
-0.544855
-0.544582
-0.544215
-0.543733
-0.543082
-0.542219
-0.541059
-0.539516
-0.537457
-0.53472
-0.531087
-0.526285
-0.51995
-0.511654
-0.500828
-0.486831
-0.468868
-0.446082
-0.417552
-0.382461
-0.340295
-0.291248
-0.236884
-0.181125
-0.13174
-0.101643
-0.108227
-0.163671
-0.243173
-0.236162
28.5967
55.4263
69.4149
74.219
73.322
68.7241
62.2295
54.9414
47.6107
40.656
34.3088
28.6658
23.7464
19.5214
15.9357
12.9222
10.4101
8.33049
6.61938
5.21904
4.07854
3.15377
2.40697
1.80614
1.32451
0.939678
0.633214
0.389871
0.197235
0.0451635
-0.074565
-0.168574
-0.242205
-0.299741
-0.344579
-0.379463
-0.406518
-0.427482
-0.443673
-0.456169
-0.465785
-0.473185
-0.478854
-0.483206
-0.486524
-0.489065
-0.490992
-0.492463
-0.49357
-0.494411
-0.495034
-0.495507
-0.495847
-0.496105
-0.496282
-0.496416
-0.496499
-0.496563
-0.496594
-0.496616
-0.496614
-0.496611
-0.496584
-0.496559
-0.496508
-0.496456
-0.496376
-0.496285
-0.496158
-0.496003
-0.495792
-0.495523
-0.495158
-0.494681
-0.494036
-0.493181
-0.492033
-0.490506
-0.488468
-0.485761
-0.482165
-0.477416
-0.47115
-0.462947
-0.452245
-0.438411
-0.420662
-0.398156
-0.369991
-0.33537
-0.293797
-0.245478
-0.191944
-0.136985
-0.087963
-0.056727
-0.0583989
-0.100956
-0.159801
-0.146158
28.7092
54.8889
68.1306
72.742
71.8482
67.3776
61.0394
53.9144
46.737
39.9222
33.6994
28.1652
23.3396
19.1944
15.6761
12.719
10.2536
8.21257
6.53302
5.15838
4.0387
3.13071
2.39739
1.80733
1.33426
0.956217
0.655116
0.415994
0.226672
0.0771934
-0.0405134
-0.132953
-0.205367
-0.261963
-0.306076
-0.340404
-0.367033
-0.38767
-0.403611
-0.415918
-0.425389
-0.432677
-0.438262
-0.44255
-0.445819
-0.448323
-0.450221
-0.451672
-0.452762
-0.453592
-0.454205
-0.454671
-0.455006
-0.45526
-0.455434
-0.455566
-0.455647
-0.455711
-0.455741
-0.455764
-0.455761
-0.455758
-0.455732
-0.455707
-0.455656
-0.455604
-0.455525
-0.455435
-0.45531
-0.455157
-0.454949
-0.454684
-0.454324
-0.453855
-0.453218
-0.452378
-0.451248
-0.449747
-0.447741
-0.445081
-0.441544
-0.436877
-0.430719
-0.42266
-0.412149
-0.398565
-0.381144
-0.359061
-0.331443
-0.297517
-0.25681
-0.209529
-0.157144
-0.103222
-0.0545225
-0.0214267
-0.016223
-0.0423299
-0.0773196
-0.0538033
28.0634
53.843
66.4254
70.8132
69.9213
65.5995
59.4557
52.5377
45.5585
38.9264
32.8668
27.4761
22.7744
18.735
15.3062
12.4239
10.0208
8.03104
6.39359
5.05327
3.96143
3.07592
2.36064
1.78503
1.32348
0.954579
0.660708
0.427288
0.242447
0.0964787
-0.0184857
-0.108792
-0.179549
-0.234864
-0.277986
-0.311553
-0.337596
-0.357786
-0.373383
-0.385428
-0.394698
-0.401834
-0.407301
-0.411499
-0.414701
-0.417153
-0.419012
-0.420435
-0.421502
-0.422316
-0.422915
-0.423372
-0.423698
-0.423947
-0.424116
-0.424246
-0.424325
-0.424388
-0.424417
-0.424441
-0.424437
-0.424434
-0.424408
-0.424383
-0.424333
-0.424282
-0.424203
-0.424114
-0.423992
-0.423842
-0.423637
-0.423378
-0.423025
-0.422566
-0.421943
-0.421121
-0.420016
-0.41855
-0.41659
-0.413992
-0.410537
-0.40598
-0.399969
-0.392104
-0.38185
-0.368602
-0.351617
-0.330098
-0.303202
-0.270188
-0.230604
-0.184651
-0.133703
-0.0810301
-0.0326261
0.00287965
0.0163135
0.00863217
-0.00111709
0.031847
26.9446
52.289
64.2938
68.4502
67.5653
63.4126
57.4986
50.8291
44.091
37.6824
31.8237
26.6098
22.0613
18.153
14.8349
12.0455
9.71955
7.7936
6.20848
4.91086
3.85369
2.99619
2.30346
1.74589
1.29875
0.941293
0.656491
0.43023
0.251022
0.109472
-0.00203723
-0.0896511
-0.158314
-0.212007
-0.253873
-0.286472
-0.311771
-0.33139
-0.346549
-0.35826
-0.367272
-0.374211
-0.379529
-0.383612
-0.386726
-0.389113
-0.390922
-0.392306
-0.393344
-0.394136
-0.394718
-0.395162
-0.395479
-0.39572
-0.395884
-0.396011
-0.396087
-0.396149
-0.396176
-0.3962
-0.396196
-0.396194
-0.396167
-0.396142
-0.396093
-0.396042
-0.395965
-0.395878
-0.395758
-0.395613
-0.395412
-0.39516
-0.394816
-0.39437
-0.393764
-0.392966
-0.391893
-0.39047
-0.388568
-0.386048
-0.382697
-0.378279
-0.372451
-0.36483
-0.354897
-0.342068
-0.325626
-0.304806
-0.2788
-0.246903
-0.208685
-0.16433
-0.115091
-0.0638716
-0.0157917
0.0224336
0.0447949
0.056183
0.0715938
0.110545
25.5318
50.2662
61.7414
65.6698
64.8014
60.8379
55.1865
48.8043
42.3479
36.202
30.5802
25.5752
21.208
17.4548
14.2682
11.5889
9.35466
7.50446
5.98154
4.73472
3.71883
2.8947
2.22883
1.69282
1.26288
0.91912
0.645179
0.427502
0.255052
0.118808
0.0114553
-0.0729151
-0.139052
-0.190785
-0.231133
-0.262559
-0.286955
-0.305878
-0.320504
-0.331806
-0.340506
-0.347205
-0.352339
-0.356281
-0.359289
-0.361594
-0.363341
-0.364679
-0.365681
-0.366447
-0.367008
-0.367436
-0.367741
-0.367973
-0.36813
-0.368253
-0.368326
-0.368385
-0.368412
-0.368435
-0.368431
-0.368428
-0.368402
-0.368377
-0.368329
-0.368278
-0.368203
-0.368119
-0.368002
-0.367861
-0.367666
-0.367423
-0.367089
-0.366658
-0.366074
-0.365304
-0.36427
-0.362899
-0.361067
-0.35864
-0.355413
-0.351162
-0.345555
-0.338226
-0.328676
-0.316346
-0.300551
-0.280559
-0.255605
-0.225021
-0.188398
-0.145893
-0.0986181
-0.0490663
-0.00141821
0.0395703
0.0709308
0.100943
0.140011
0.180549
23.9318
47.8273
58.7836
62.4899
61.6497
57.8951
52.537
46.4785
40.3421
34.4959
29.1451
24.3798
20.2207
16.6458
13.6101
11.0576
8.92887
7.1659
5.71465
4.52639
3.5581
2.77249
2.13766
1.62655
1.21652
0.88862
0.627267
0.419549
0.254949
0.124877
0.0223619
-0.0582274
-0.121416
-0.170858
-0.209428
-0.239479
-0.262813
-0.280919
-0.294917
-0.305735
-0.314065
-0.32048
-0.325398
-0.329173
-0.332055
-0.334264
-0.335938
-0.33722
-0.338179
-0.338914
-0.33945
-0.339859
-0.34015
-0.340372
-0.340521
-0.340638
-0.340708
-0.340765
-0.340789
-0.340811
-0.340808
-0.340804
-0.340778
-0.340753
-0.340706
-0.340656
-0.340583
-0.340502
-0.340388
-0.340253
-0.340065
-0.339831
-0.339511
-0.339097
-0.338537
-0.3378
-0.336812
-0.335502
-0.33375
-0.331432
-0.328351
-0.324293
-0.318942
-0.31195
-0.302843
-0.291089
-0.27604
-0.257002
-0.233254
-0.204167
-0.169354
-0.12894
-0.0838754
-0.0362212
0.0107988
0.0543306
0.0941868
0.141381
0.201292
0.239408
22.2116
45.0288
55.444
58.9314
58.1317
54.6052
49.5689
43.8681
38.0874
32.5756
27.5282
23.0314
19.1059
15.7312
12.8652
10.4551
8.44504
6.7802
5.40962
4.28729
3.37263
2.63044
2.03061
1.54761
1.16007
0.850093
0.60298
0.406539
0.25084
0.127771
0.0307524
-0.045536
-0.105367
-0.152196
-0.188737
-0.217215
-0.239333
-0.256501
-0.269776
-0.280039
-0.287942
-0.294031
-0.298699
-0.302283
-0.305019
-0.307116
-0.308706
-0.309923
-0.310833
-0.31153
-0.312038
-0.312425
-0.3127
-0.312909
-0.31305
-0.31316
-0.313226
-0.313279
-0.313302
-0.313323
-0.313318
-0.313315
-0.313288
-0.313264
-0.313218
-0.313169
-0.313099
-0.31302
-0.312911
-0.312781
-0.312602
-0.312379
-0.312073
-0.31168
-0.311148
-0.310449
-0.309511
-0.30827
-0.306611
-0.304416
-0.301499
-0.29766
-0.292599
-0.285989
-0.277382
-0.266278
-0.252069
-0.234103
-0.211705
-0.184289
-0.151487
-0.113387
-0.0707748
-0.025272
0.0208274
0.0664249
0.113747
0.175794
0.252759
0.285424
20.4132
41.9247
51.7521
55.0185
54.2705
50.9904
46.3024
40.9905
35.5988
30.454
25.7401
21.5392
17.8709
14.717
12.0383
9.78549
7.90641
6.34996
5.0685
4.01906
3.16372
2.46957
1.9085
1.45664
1.09402
0.803933
0.572631
0.38872
0.242921
0.127649
0.0367559
-0.0347343
-0.0908154
-0.134722
-0.168992
-0.195707
-0.216461
-0.232574
-0.245037
-0.254674
-0.262097
-0.267816
-0.272202
-0.27557
-0.27814
-0.280112
-0.281605
-0.282749
-0.283603
-0.284257
-0.284733
-0.285096
-0.285352
-0.285548
-0.285678
-0.285781
-0.285842
-0.285891
-0.285911
-0.28593
-0.285925
-0.285921
-0.285895
-0.285871
-0.285826
-0.285779
-0.285711
-0.285636
-0.285531
-0.285408
-0.285237
-0.285027
-0.284738
-0.284367
-0.283866
-0.283209
-0.282328
-0.281164
-0.279607
-0.27755
-0.274817
-0.27122
-0.266482
-0.260295
-0.252243
-0.241858
-0.228576
-0.211792
-0.190879
-0.165293
-0.134688
-0.0991143
-0.0591908
-0.0161182
0.0286724
0.0756205
0.128925
0.20281
0.292467
0.317806
18.5624
38.5635
47.7408
50.778
50.091
47.0743
42.759
37.8649
32.8926
28.1449
23.7926
19.9126
16.524
13.61
11.1348
9.05307
7.31653
5.87804
4.69361
3.72355
2.93282
2.29104
1.77224
1.35435
1.01895
0.750588
0.536571
0.36637
0.231411
0.124687
0.0405135
-0.0257079
-0.0776672
-0.118358
-0.150126
-0.174898
-0.194147
-0.209095
-0.22066
-0.229604
-0.236494
-0.241804
-0.245876
-0.249004
-0.25139
-0.253221
-0.254607
-0.255669
-0.256461
-0.257067
-0.257507
-0.257842
-0.258078
-0.258259
-0.258378
-0.258473
-0.258527
-0.258572
-0.258589
-0.258606
-0.2586
-0.258595
-0.258569
-0.258545
-0.258502
-0.258457
-0.258392
-0.258321
-0.258221
-0.258105
-0.257944
-0.257747
-0.257476
-0.25713
-0.256663
-0.256053
-0.255234
-0.254154
-0.25271
-0.250804
-0.248271
-0.244941
-0.240555
-0.234831
-0.227383
-0.217782
-0.205508
-0.190006
-0.1707
-0.147092
-0.118857
-0.086007
-0.0490051
-0.00866439
0.0343445
0.0817305
0.139182
0.221421
0.319169
0.336425
16.6751
34.9877
43.4444
46.2387
45.6198
42.8819
38.9612
34.5112
29.9863
25.663
21.698
18.1622
15.0736
12.4172
10.1607
8.26264
6.67926
5.36756
4.28745
3.40275
2.68154
2.09612
1.62282
1.24154
0.935471
0.690544
0.495181
0.339787
0.216545
0.119066
0.0421677
-0.0183448
-0.0658344
-0.103035
-0.132085
-0.154743
-0.172354
-0.186032
-0.196618
-0.204807
-0.211115
-0.215977
-0.219706
-0.222571
-0.224755
-0.226431
-0.2277
-0.228672
-0.229395
-0.229948
-0.230349
-0.230655
-0.230868
-0.231032
-0.231139
-0.231224
-0.231272
-0.231312
-0.231326
-0.231339
-0.231332
-0.231327
-0.231301
-0.231277
-0.231235
-0.231192
-0.23113
-0.231064
-0.23097
-0.230861
-0.230711
-0.230528
-0.230277
-0.229958
-0.229528
-0.228968
-0.228217
-0.227227
-0.225906
-0.224163
-0.221847
-0.218804
-0.214799
-0.209573
-0.202776
-0.194018
-0.182826
-0.168699
-0.151112
-0.129617
-0.103908
-0.0739679
-0.0401152
-0.00282566
0.0378633
0.0846265
0.144145
0.230993
0.33225
0.341623
14.7611
31.2339
38.8973
41.4309
40.8847
38.4392
34.9331
30.9506
26.8982
23.0242
19.4697
16.2991
13.529
11.1463
9.12209
7.41932
5.99876
4.82187
3.85271
3.05883
2.4116
1.88618
1.46135
1.11907
0.844272
0.624338
0.448883
0.309302
0.19858
0.110988
0.0418754
-0.0125229
-0.0552218
-0.0886783
-0.11481
-0.135197
-0.151046
-0.163358
-0.172889
-0.180262
-0.185943
-0.190322
-0.19368
-0.19626
-0.198226
-0.199735
-0.200876
-0.20175
-0.202399
-0.202895
-0.203253
-0.203527
-0.203716
-0.203861
-0.203955
-0.20403
-0.20407
-0.204104
-0.204114
-0.204124
-0.204116
-0.204109
-0.204084
-0.204061
-0.204021
-0.20398
-0.203922
-0.203859
-0.203771
-0.203671
-0.203532
-0.203364
-0.203135
-0.202845
-0.202455
-0.201948
-0.20127
-0.200377
-0.199186
-0.197617
-0.195533
-0.192798
-0.189198
-0.184503
-0.1784
-0.170538
-0.160496
-0.147827
-0.132061
-0.112799
-0.0897617
-0.0629023
-0.0324188
0.00149109
0.0392792
0.084267
0.14364
0.231275
0.331669
0.334104
12.8271
27.3333
34.133
36.3858
35.9146
33.7732
30.6992
27.2052
23.6476
20.2449
17.1217
14.3351
11.9001
9.8054
8.02569
6.52854
5.27944
4.24456
3.39229
2.69411
2.12486
1.66272
1.289
0.987875
0.746095
0.552559
0.398142
0.275278
0.177804
0.100677
0.0398127
-0.00810407
-0.0457212
-0.0752031
-0.0982338
-0.116207
-0.130181
-0.141039
-0.149445
-0.155949
-0.16096
-0.164823
-0.167785
-0.170061
-0.171793
-0.173123
-0.174127
-0.174897
-0.175466
-0.175901
-0.176214
-0.176453
-0.176616
-0.176742
-0.176821
-0.176884
-0.176917
-0.176944
-0.17695
-0.176957
-0.176946
-0.176939
-0.176914
-0.176891
-0.176852
-0.176815
-0.17676
-0.176702
-0.176621
-0.176529
-0.176402
-0.176251
-0.176044
-0.175784
-0.175437
-0.174987
-0.174385
-0.173596
-0.172542
-0.171158
-0.169319
-0.166908
-0.163736
-0.159603
-0.154231
-0.147314
-0.138482
-0.127344
-0.113491
-0.0965711
-0.076333
-0.0527114
-0.025806
0.0043968
0.0386866
0.0807119
0.137704
0.222392
0.317898
0.314852
10.8774
23.3131
29.1841
31.1349
30.7394
28.912
26.2853
23.298
20.2546
17.3424
14.6686
12.2824
10.197
8.40292
6.87849
5.59602
4.52598
3.63941
2.90925
2.31107
1.82332
1.42731
1.10706
0.84898
0.641747
0.475845
0.343463
0.238117
0.15453
0.0883828
0.0361749
-0.0049349
-0.0372119
-0.0625143
-0.0822823
-0.0977136
-0.109712
-0.119037
-0.126256
-0.131843
-0.136146
-0.139464
-0.142006
-0.14396
-0.145446
-0.146587
-0.147445
-0.148105
-0.148589
-0.14896
-0.149224
-0.149426
-0.149562
-0.149667
-0.149731
-0.149782
-0.149806
-0.149826
-0.149827
-0.14983
-0.149817
-0.149808
-0.149784
-0.149762
-0.149725
-0.14969
-0.149639
-0.149587
-0.149512
-0.14943
-0.149315
-0.149181
-0.148998
-0.148771
-0.148467
-0.148077
-0.147555
-0.146874
-0.145966
-0.144775
-0.143193
-0.141122
-0.138399
-0.134852
-0.130244
-0.124314
-0.116745
-0.107205
-0.0953428
-0.0808597
-0.0635343
-0.0432914
-0.0201577
0.00602302
0.0362272
0.0741256
0.126579
0.204818
0.291849
0.285071
8.91536
19.1968
24.0818
25.7102
25.3898
23.8843
21.7179
19.2525
16.7398
14.3346
12.1256
10.1539
8.43054
6.94776
5.68778
4.62774
3.74326
3.0104
2.40681
1.9123
1.50906
1.18165
0.916856
0.703454
0.532084
0.394879
0.285387
0.198248
0.1291
0.0743726
0.031174
-0.00284802
-0.0295619
-0.0505079
-0.066873
-0.0796514
-0.0895872
-0.0973103
-0.103288
-0.107917
-0.11148
-0.114227
-0.116329
-0.117946
-0.119173
-0.120115
-0.120821
-0.121364
-0.12176
-0.122063
-0.122276
-0.12244
-0.122547
-0.122631
-0.122678
-0.122716
-0.122731
-0.122743
-0.122739
-0.122738
-0.122723
-0.122713
-0.122688
-0.122667
-0.122632
-0.122601
-0.122553
-0.122506
-0.122439
-0.122366
-0.122265
-0.122148
-0.12199
-0.121797
-0.121539
-0.121211
-0.120773
-0.120204
-0.119447
-0.118456
-0.117143
-0.115424
-0.113166
-0.110229
-0.106414
-0.101507
-0.0952463
-0.0873593
-0.0775555
-0.0655902
-0.051275
-0.0345335
-0.0153454
0.00652223
0.0320904
0.0647745
0.1107
0.179337
0.254811
0.246134
6.94374
15.0052
18.8559
20.1435
19.8968
18.7197
17.0238
15.0932
13.1247
11.2399
9.50848
7.9628
6.61165
5.44906
4.46111
3.6299
2.93633
2.36165
1.88831
1.5005
1.18427
0.927491
0.719811
0.552427
0.418009
0.310381
0.224489
0.156126
0.101875
0.0589335
0.0250368
-0.00166399
-0.0226292
-0.0390715
-0.0519167
-0.0619498
-0.0697504
-0.0758144
-0.0805065
-0.0841401
-0.0869352
-0.0890904
-0.0907368
-0.0920036
-0.092961
-0.0936971
-0.094245
-0.0946671
-0.0949715
-0.0952043
-0.0953642
-0.0954879
-0.0955653
-0.0956265
-0.0956565
-0.0956814
-0.0956855
-0.0956905
-0.0956809
-0.0956755
-0.0956573
-0.0956455
-0.0956213
-0.095601
-0.0955683
-0.0955399
-0.0954964
-0.0954552
-0.095395
-0.095332
-0.0952446
-0.0951465
-0.0950143
-0.0948558
-0.0946454
-0.0943816
-0.0940302
-0.0935771
-0.0929749
-0.0921921
-0.0911542
-0.0898002
-0.088022
-0.0857116
-0.0827137
-0.07886
-0.0739442
-0.0677562
-0.0600665
-0.0506855
-0.0394613
-0.0263247
-0.0112318
0.0060671
0.0265109
0.0530187
0.0906766
0.147009
0.208375
0.199545
4.96486
10.7571
13.5353
14.4667
14.292
13.4479
12.2308
10.8447
9.43109
8.07719
6.83325
5.72262
4.75171
3.91624
3.20625
2.60888
2.11043
1.6974
1.35721
1.07849
0.851206
0.66665
0.517384
0.397075
0.300464
0.223103
0.161366
0.112228
0.0732333
0.0423668
0.0180024
-0.00119319
-0.0162634
-0.0280858
-0.037319
-0.0445336
-0.0501413
-0.0545009
-0.0578714
-0.0604821
-0.0624876
-0.0640337
-0.065211
-0.0661174
-0.0667981
-0.0673219
-0.0677066
-0.068004
-0.068214
-0.0683747
-0.0684801
-0.0685626
-0.0686092
-0.0686469
-0.0686593
-0.0686703
-0.068664
-0.0686608
-0.0686454
-0.0686357
-0.0686147
-0.0686009
-0.0685767
-0.0685573
-0.0685267
-0.0685014
-0.0684622
-0.0684268
-0.0683742
-0.0683214
-0.068248
-0.068169
-0.0680634
-0.0679406
-0.0677789
-0.0675807
-0.067318
-0.0669838
-0.0665408
-0.0659702
-0.0652149
-0.0642337
-0.0629465
-0.0612779
-0.0591149
-0.0563377
-0.0527965
-0.0483434
-0.0428113
-0.0360669
-0.027997
-0.0185477
-0.00767116
0.00484859
0.0197633
0.0393009
0.0672683
0.109117
0.154384
0.146908
2.98088
6.46963
8.14763
8.71127
8.60712
8.09942
7.3668
6.5323
5.68106
4.86562
4.11629
3.4472
2.86226
2.3589
1.93113
1.57121
1.27088
1.02202
0.81705
0.649123
0.512189
0.401003
0.311085
0.238608
0.180417
0.13382
0.096641
0.0670498
0.0435702
0.024986
0.0103198
-0.00123788
-0.0103076
-0.0174262
-0.0229808
-0.0273239
-0.0306969
-0.0333193
-0.0353424
-0.0369098
-0.0381098
-0.0390345
-0.0397331
-0.0402716
-0.0406699
-0.0409773
-0.0411954
-0.0413654
-0.041479
-0.0415662
-0.0416163
-0.0416566
-0.0416718
-0.0416853
-0.0416797
-0.0416765
-0.0416595
-0.0416478
-0.0416264
-0.0416122
-0.0415884
-0.0415723
-0.041548
-0.0415297
-0.0415013
-0.0414791
-0.0414442
-0.0414146
-0.0413698
-0.0413275
-0.0412684
-0.0412089
-0.0411305
-0.0410441
-0.0409318
-0.0408006
-0.040628
-0.0404149
-0.0401338
-0.039779
-0.039311
-0.0387088
-0.0379207
-0.0369042
-0.0355893
-0.0339055
-0.03176
-0.0290676
-0.0257243
-0.0216538
-0.016784
-0.0110818
-0.00451092
0.00307302
0.012156
0.0241312
0.0413537
0.0671225
0.0948641
0.0899022
0.993875
2.15894
2.7201
2.90879
2.87418
2.70475
2.4601
2.18141
1.8971
1.62465
1.37421
1.15055
0.955052
0.786791
0.643813
0.523492
0.423103
0.339928
0.271429
0.215323
0.169585
0.132458
0.102449
0.0782626
0.0588624
0.0433284
0.0309477
0.0210981
0.01329
0.00711318
0.00224533
-0.0015944
-0.00459981
-0.00696391
-0.00879965
-0.0102392
-0.0113519
-0.0122174
-0.0128773
-0.013389
-0.0137738
-0.0140698
-0.0142839
-0.0144501
-0.0145625
-0.0146508
-0.0147006
-0.0147416
-0.0147577
-0.0147705
-0.0147647
-0.0147623
-0.0147456
-0.0147346
-0.0147107
-0.014693
-0.0146653
-0.0146449
-0.0146173
-0.0145985
-0.0145718
-0.0145534
-0.0145289
-0.0145115
-0.0144855
-0.0144664
-0.0144358
-0.014412
-0.0143753
-0.0143435
-0.014299
-0.0142592
-0.0142083
-0.0141588
-0.0140966
-0.0140329
-0.0139516
-0.0138607
-0.0137433
-0.0136064
-0.0134284
-0.013209
-0.0129249
-0.0125669
-0.012108
-0.0115278
-0.0107907
-0.00987453
-0.00873879
-0.00736481
-0.00572252
-0.00380391
-0.00159322
0.000958333
0.00402228
0.00806978
0.0138995
0.0226152
0.0319747
0.0302547
-0.994137
-2.15942
-2.72069
-2.90937
-2.87481
-2.70534
-2.46085
-2.18234
-1.8982
-1.62614
-1.37627
-1.15318
-0.958093
-0.790248
-0.647587
-0.527575
-0.427416
-0.344406
-0.276016
-0.219956
-0.174218
-0.137054
-0.106966
-0.0827102
-0.0631959
-0.0475671
-0.0350687
-0.0251119
-0.0171965
-0.0109244
-0.00596064
-0.00205553
0.0010248
0.00343224
0.0053287
0.00680353
0.00796004
0.00885826
0.00956666
0.0101151
0.010549
0.0108841
0.0111561
0.0113639
0.0115386
0.0116701
0.011789
0.0118774
0.0119592
0.0120209
0.0120826
0.0121279
0.0121767
0.0122125
0.0122549
0.0122869
0.0123256
0.0123545
0.0123884
0.0124119
0.0124415
0.0124621
0.0124869
0.0125035
0.0125273
0.0125431
0.0125694
0.0125875
0.0126163
0.0126374
0.012667
0.012687
0.0127104
0.0127226
0.0127344
0.0127304
0.0127202
0.0126883
0.0126414
0.0125598
0.0124469
0.0122822
0.0120607
0.011758
0.0113583
0.0108315
0.0101557
0.00929054
0.00821233
0.00688241
0.00528803
0.00341085
0.00124301
-0.00127038
-0.0042888
-0.0082925
-0.0140741
-0.0227384
-0.0320464
-0.0302765
-2.98114
-6.47011
-8.14821
-8.71186
-8.60776
-8.10002
-7.36756
-6.53324
-5.68218
-4.86713
-4.11836
-3.44983
-2.86531
-2.36236
-1.93491
-1.57529
-1.27519
-1.0265
-0.821636
-0.653753
-0.516819
-0.405596
-0.315598
-0.243053
-0.184748
-0.138057
-0.100761
-0.0710628
-0.0474764
-0.0287974
-0.014036
-0.00241284
0.00673205
0.0138942
0.0195094
0.023888
0.0273058
0.0299613
0.0320329
0.0336373
0.034887
0.0358507
0.0366069
0.037187
0.0376478
0.037998
0.0382843
0.0385015
0.0386808
0.0388166
0.0389339
0.0390219
0.0391025
0.0391632
0.0392239
0.0392704
0.0393198
0.0393573
0.0393974
0.0394257
0.0394581
0.0394808
0.0395061
0.0395218
0.0395435
0.0395562
0.0395783
0.0395908
0.0396116
0.039622
0.0396366
0.0396368
0.0396326
0.0396077
0.0395692
0.0394976
0.0393962
0.0392419
0.0390312
0.0387319
0.0383292
0.0377817
0.0370561
0.0360946
0.034839
0.0332084
0.0311239
0.0284825
0.0251965
0.0211703
0.0163486
0.0106878
0.00415998
-0.00338559
-0.0124231
-0.0243544
-0.0415286
-0.067246
-0.0949359
-0.0899242
-4.96511
-10.7576
-13.5358
-14.4673
-14.2926
-13.4485
-12.2316
-10.8457
-9.43224
-8.07872
-6.83534
-5.72527
-4.75477
-3.91971
-3.21004
-2.61297
-2.11474
-1.70188
-1.36179
-1.08312
-0.855829
-0.671237
-0.521891
-0.401514
-0.304789
-0.227336
-0.165483
-0.11624
-0.0771387
-0.0461787
-0.0217202
-0.00245908
0.0126867
0.0245532
0.0338467
0.0410973
0.0467517
0.0511451
0.0545644
0.0572126
0.0592687
0.0608537
0.0620881
0.0630359
0.0637792
0.0643454
0.0647967
0.0651406
0.0654161
0.0656251
0.0657971
0.0659273
0.0660394
0.0661246
0.0662036
0.0662642
0.0663241
0.06637
0.0664162
0.0664493
0.0664845
0.0665091
0.0665348
0.0665501
0.0665697
0.0665794
0.0665973
0.0666044
0.0666174
0.0666171
0.0666166
0.066597
0.0665657
0.0665039
0.0664154
0.0662768
0.0660853
0.0658098
0.0654368
0.0649219
0.0642323
0.0633059
0.0620812
0.060467
0.0583634
0.0556391
0.0521582
0.047756
0.042281
0.0355811
0.0275597
0.0181517
0.00731875
-0.00516227
-0.0200316
-0.0395252
-0.0674438
-0.109241
-0.154456
-0.146931
-6.94398
-15.0057
-18.8565
-20.1441
-19.8974
-18.7203
-17.0246
-15.0942
-13.1259
-11.2415
-9.51061
-7.96548
-6.61473
-5.45255
-4.46491
-3.634
-2.94065
-2.36612
-1.89289
-1.50512
-1.18888
-0.932068
-0.724308
-0.556857
-0.422327
-0.314608
-0.228602
-0.160135
-0.105779
-0.062746
-0.0287569
-0.00199057
0.0190506
0.0355378
0.0484433
0.0585131
0.0663629
0.0724618
0.0772032
0.080875
0.0837219
0.085916
0.0876189
0.0889268
0.0899467
0.0907245
0.0913369
0.0918046
0.0921742
0.0924547
0.0926803
0.0928516
0.0929947
0.093104
0.0932008
0.0932752
0.0933453
0.0933993
0.0934515
0.0934893
0.0935271
0.0935535
0.0935797
0.0935945
0.0936123
0.0936193
0.093633
0.0936348
0.0936401
0.0936292
0.0936139
0.0935748
0.0935167
0.0934186
0.0932809
0.0930764
0.092796
0.0924016
0.0918688
0.091142
0.0901704
0.0888712
0.0871554
0.0848988
0.0819604
0.0781593
0.0733029
0.0671655
0.0595325
0.0501964
0.0390211
0.0259258
0.0108771
-0.00638257
-0.026781
-0.0532445
-0.090853
-0.147134
-0.208448
-0.199568
-8.91558
-19.1972
-24.0823
-25.7108
-25.3904
-23.885
-21.7187
-19.2536
-16.7411
-14.3362
-12.1278
-10.1566
-8.43365
-6.95127
-5.6916
-4.63184
-3.74758
-3.01487
-2.41138
-1.9169
-1.51367
-1.18622
-0.921342
-0.707872
-0.536392
-0.399099
-0.289495
-0.202254
-0.133003
-0.0781858
-0.034897
-0.000809492
0.0259808
0.0469727
0.0633983
0.0762144
0.0862022
0.0939618
0.0999898
0.104657
0.108273
0.11106
0.113218
0.114876
0.116164
0.117147
0.117916
0.118503
0.118964
0.119314
0.119591
0.119802
0.119975
0.120108
0.120222
0.12031
0.12039
0.120452
0.12051
0.120552
0.120592
0.12062
0.120647
0.120661
0.120678
0.120682
0.120692
0.120689
0.120686
0.120665
0.120635
0.120577
0.120493
0.120359
0.120173
0.119904
0.119537
0.119027
0.118338
0.117404
0.116157
0.114494
0.112298
0.109413
0.105659
0.100804
0.0946013
0.0867644
0.0770167
0.0650968
0.0508309
0.0341307
0.0149877
-0.00684023
-0.0323629
-0.0650023
-0.110877
-0.179463
-0.254884
-0.246157
-10.8776
-23.3135
-29.1846
-31.1355
-30.7401
-28.9127
-26.2862
-23.2991
-20.2559
-17.3441
-14.6708
-12.2852
-10.2002
-8.40646
-6.88233
-5.60013
-4.53031
-3.64388
-2.91381
-2.31566
-1.82791
-1.43186
-1.11153
-0.853384
-0.646043
-0.480055
-0.347564
-0.242119
-0.158432
-0.0921967
-0.0399011
0.00127395
0.0336275
0.0589771
0.0788064
0.0942765
0.10633
0.115693
0.122963
0.128591
0.132949
0.136306
0.138903
0.140897
0.142443
0.143625
0.144543
0.145245
0.145794
0.14621
0.146537
0.146787
0.146989
0.147144
0.147275
0.147375
0.147465
0.147534
0.147597
0.147644
0.147686
0.147716
0.147743
0.147757
0.147772
0.147774
0.14778
0.147772
0.147762
0.147731
0.147687
0.14761
0.1475
0.147332
0.1471
0.146768
0.146317
0.145694
0.144854
0.14372
0.142206
0.14019
0.137528
0.134034
0.129486
0.123607
0.116096
0.106605
0.0947983
0.0803613
0.0630855
0.0428837
0.019796
-0.0063443
-0.0365027
-0.0743558
-0.126758
-0.204945
-0.291924
-0.285095
-12.8273
-27.3337
-34.1335
-36.3863
-35.9152
-33.7739
-30.7001
-27.2064
-23.649
-20.2466
-17.124
-14.3379
-11.9033
-9.80897
-8.02955
-6.53266
-5.28377
-4.24903
-3.39684
-2.69869
-2.12944
-1.66725
-1.29346
-0.992263
-0.750377
-0.556758
-0.402235
-0.279276
-0.181704
-0.104492
-0.0435423
0.00443937
0.042133
0.0716634
0.0947567
0.11277
0.126802
0.137701
0.146159
0.152705
0.157772
0.161675
0.164691
0.167006
0.168798
0.170167
0.171229
0.17204
0.172671
0.173151
0.173526
0.173812
0.174041
0.174218
0.174365
0.174478
0.174575
0.174651
0.17472
0.17477
0.174815
0.174846
0.174873
0.174887
0.174901
0.174902
0.174904
0.174891
0.174874
0.174834
0.174776
0.174681
0.174546
0.174345
0.174068
0.173676
0.173144
0.172413
0.171428
0.1701
0.168329
0.165973
0.162864
0.158782
0.153469
0.146603
0.137828
0.126739
0.11294
0.0960668
0.0758786
0.052298
0.0254394
-0.00472208
-0.0389659
-0.0809447
-0.137886
-0.222522
-0.317974
-0.314877
-14.7613
-31.2342
-38.8978
-41.4314
-40.8853
-38.4399
-34.934
-30.9518
-26.8997
-23.026
-19.4721
-16.302
-13.5322
-11.1499
-9.12597
-7.42346
-6.00309
-4.82633
-3.85725
-3.06339
-2.41615
-1.8907
-1.46578
-1.12344
-0.848538
-0.628525
-0.452968
-0.313294
-0.202479
-0.114803
-0.0456085
0.00885429
0.0516293
0.0851357
0.111332
0.131761
0.14767
0.160026
0.169611
0.177027
0.182765
0.187184
0.190597
0.193215
0.195238
0.196786
0.197982
0.198896
0.199605
0.200144
0.200564
0.200885
0.201139
0.201336
0.201498
0.201622
0.201728
0.201811
0.201883
0.201938
0.201985
0.202017
0.202044
0.202058
0.202071
0.202071
0.20207
0.202052
0.202028
0.201978
0.201908
0.201795
0.201637
0.201404
0.201084
0.200635
0.200025
0.199191
0.198068
0.196556
0.19454
0.19186
0.188323
0.183679
0.177634
0.169823
0.159837
0.147215
0.131504
0.112288
0.0893011
0.0624826
0.0320465
-0.00182108
-0.0395629
-0.084503
-0.143825
-0.231407
-0.331747
-0.334129
-16.6752
-34.988
-43.4449
-46.2392
-45.6205
-42.8827
-38.9622
-34.5125
-29.9878
-25.6649
-21.7004
-18.1651
-15.0768
-12.4209
-10.1646
-8.2668
-6.6836
-5.37202
-4.29198
-3.4073
-2.68607
-2.10061
-1.62723
-1.24589
-0.939721
-0.694719
-0.499256
-0.343775
-0.220442
-0.122882
-0.0459043
0.0146724
0.0622374
0.0994891
0.128606
0.151308
0.168982
0.182706
0.193349
0.201581
0.207948
0.212851
0.216635
0.219536
0.221776
0.223489
0.224811
0.225821
0.226602
0.227197
0.227658
0.228011
0.22829
0.228505
0.228681
0.228816
0.22893
0.229017
0.229094
0.229152
0.229201
0.229234
0.229262
0.229276
0.229288
0.229286
0.229282
0.22926
0.229229
0.229171
0.229089
0.228959
0.228779
0.228516
0.228155
0.227652
0.226969
0.226038
0.224785
0.223098
0.22085
0.217863
0.213921
0.208745
0.202007
0.193298
0.182161
0.168082
0.150548
0.129098
0.103441
0.0735413
0.0397364
0.0024902
-0.0381519
-0.0848661
-0.144332
-0.231127
-0.33233
-0.341648
-18.5625
-38.5638
-47.7412
-50.7785
-50.0917
-47.0751
-42.76
-37.8662
-32.8942
-28.1469
-23.7951
-19.9155
-16.5273
-13.6137
-11.1388
-9.05724
-7.32087
-5.88249
-4.69813
-3.72808
-2.93733
-2.29551
-1.77663
-1.35868
-1.02318
-0.75475
-0.540636
-0.370352
-0.235307
-0.128504
-0.0442534
0.0220317
0.0740656
0.114809
0.146646
0.171464
0.190779
0.205774
0.2174
0.226389
0.233339
0.23869
0.242817
0.24598
0.248419
0.250286
0.251723
0.252821
0.253669
0.254314
0.254815
0.255197
0.255498
0.25573
0.255919
0.256064
0.256184
0.256277
0.256358
0.256418
0.256469
0.256503
0.256531
0.256545
0.256557
0.256554
0.256547
0.256521
0.256484
0.256418
0.256324
0.256179
0.255977
0.255686
0.255288
0.254734
0.253983
0.252961
0.251585
0.249736
0.247271
0.243996
0.239674
0.234
0.226609
0.217057
0.204837
0.189383
0.170129
0.146567
0.118382
0.085573
0.0486194
0.00832268
-0.0346383
-0.0819744
-0.139373
-0.221558
-0.319251
-0.336451
-20.4132
-41.9249
-51.7524
-55.019
-54.2712
-50.9912
-46.3035
-40.9919
-35.6005
-30.4561
-25.7427
-21.5422
-17.8743
-14.7207
-12.0423
-9.78967
-7.91075
-6.35441
-5.07301
-4.02358
-3.16821
-2.47402
-1.91287
-1.46095
-1.09824
-0.808081
-0.576685
-0.392697
-0.246814
-0.131468
-0.0404992
0.0310545
0.0872092
0.131169
0.165511
0.192274
0.213097
0.22926
0.241787
0.25147
0.258953
0.264714
0.269154
0.272557
0.275178
0.277183
0.278727
0.279904
0.280812
0.281504
0.282039
0.282448
0.28277
0.283017
0.283217
0.283371
0.283498
0.283596
0.283679
0.283742
0.283794
0.283829
0.283857
0.283872
0.283883
0.283879
0.28387
0.283841
0.283798