/*--------------------------------*- C++ -*----------------------------------*\
| =========                 |                                                 |
| \\      /  F ield         | OpenFOAM: The Open Source CFD Toolbox           |
|  \\    /   O peration     | Version:  5.x                                   |
|   \\  /    A nd           | Web:      www.OpenFOAM.org                      |
|    \\/     M anipulation  |                                                 |
\*---------------------------------------------------------------------------*/
FoamFile
{
    version     2.0;
    format      ascii;
    class       surfaceScalarField;
    location    "1.5";
    object      phi;
}
// * * * * * * * * * * * * * * * * * * * * * * * * * * * * * * * * * * * * * //

dimensions      [0 3 -1 0 0 0 0];

internalField   nonuniform List<scalar> 
7860
(
0.00283437
0.00216563
0.00262131
0.00021306
0.00260897
1.23456e-05
0.00260646
2.50289e-06
0.00260917
-2.70927e-06
0.0026079
1.27707e-06
0.00260679
1.10503e-06
0.00260521
1.57611e-06
0.00260399
1.22877e-06
0.00260289
1.09494e-06
0.00260201
8.80394e-07
0.00260127
7.42468e-07
0.00260066
6.12664e-07
0.00260014
5.15539e-07
0.00259971
4.33368e-07
0.00259934
3.66371e-07
0.00259903
3.11748e-07
0.00259877
2.64578e-07
0.00259854
2.24919e-07
0.00259835
1.91038e-07
0.00259819
1.62403e-07
0.00259805
1.37471e-07
0.00259793
1.15826e-07
0.00259784
9.65106e-08
0.00259776
8.08192e-08
0.00259769
6.71801e-08
0.00259763
5.5967e-08
0.00259759
4.5925e-08
0.00259755
3.71264e-08
0.00259752
2.98368e-08
0.0025975
2.46501e-08
0.00259748
1.93051e-08
0.00259746
1.54811e-08
0.00259745
1.21273e-08
0.00259744
1.00508e-08
0.00259743
7.64758e-09
0.00259742
6.41274e-09
0.00259742
5.0317e-09
0.00259742
4.19078e-09
0.00259741
2.91407e-09
0.00259741
2.29714e-09
0.00259741
1.59828e-09
0.00259741
1.5987e-09
0.00259741
1.19082e-09
0.00259741
1.12892e-09
0.00259741
2.4729e-10
0.0025974
1.55186e-10
0.0025974
-1.53069e-10
0.0025974
9.21923e-10
0.0025974
4.65222e-10
0.0025974
2.69431e-10
0.0025974
-5.46385e-11
0.0025974
2.19751e-10
0.0025974
-1.1972e-10
0.0025974
3.38498e-10
0.0025974
7.09339e-12
0.0025974
5.25882e-11
0.0025974
-3.60986e-10
0.0025974
2.00196e-10
0.0025974
-2.03748e-10
0.0025974
8.52294e-11
0.0025974
1.53078e-10
0.0025974
4.39542e-10
0.0025974
1.72492e-11
0.0025974
-1.10258e-10
0.0025974
-1.7424e-10
0.0025974
3.81079e-10
0.0025974
1.08117e-10
0.0025974
1.60549e-10
0.0025974
-1.65473e-10
0.0025974
1.0884e-10
0.0025974
-2.80255e-10
0.0025974
-5.09838e-11
0.0025974
-4.09266e-12
0.0025974
3.98625e-10
0.0025974
3.08181e-11
0.0025974
9.33551e-11
0.0025974
-1.04635e-10
0.0025974
4.52493e-10
0.0025974
2.97136e-10
0.0025974
6.6553e-10
0.0025974
6.23088e-10
0.0025974
1.04857e-09
0.0025974
1.6487e-09
0.0025974
2.4775e-09
0.00259739
3.50993e-09
0.00259739
5.12535e-09
0.00259738
7.15495e-09
0.00259737
1.03279e-08
0.00259736
1.42704e-08
0.00259734
1.99455e-08
0.00259731
2.6135e-08
0.00259728
3.38584e-08
0.00259724
3.78681e-08
0.0025972
3.37653e-08
0.00259718
2.2843e-08
0.00259708
1.0146e-07
0.00259638
6.95861e-07
0.00259378
2.6029e-06
-1.1899e-06
0.00456773
0.00259789
0.00437551
0.000405288
0.00434671
4.1142e-05
0.00434295
6.26406e-06
0.00434595
-5.71366e-06
0.00434442
2.809e-06
0.00434279
2.7323e-06
0.00434059
3.78389e-06
0.00433879
3.02447e-06
0.0043372
2.684e-06
0.00433591
2.17202e-06
0.00433482
1.83044e-06
0.00433392
1.51571e-06
0.00433316
1.27675e-06
0.00433252
1.07531e-06
0.00433197
9.10446e-07
0.00433151
7.74924e-07
0.00433111
6.60821e-07
0.00433077
5.64107e-07
0.00433048
4.80739e-07
0.00433024
4.09946e-07
0.00433003
3.46963e-07
0.00432985
2.94336e-07
0.0043297
2.47306e-07
0.00432957
2.07266e-07
0.00432947
1.72553e-07
0.00432938
1.43487e-07
0.00432931
1.18131e-07
0.00432925
9.68935e-08
0.0043292
7.8077e-08
0.00432916
6.40011e-08
0.00432913
5.08709e-08
0.0043291
4.12979e-08
0.00432908
3.23276e-08
0.00432907
2.66646e-08
0.00432905
2.09587e-08
0.00432904
1.69025e-08
0.00432903
1.30323e-08
0.00432903
1.10181e-08
0.00432902
8.14211e-09
0.00432902
6.71207e-09
0.00432902
4.70744e-09
0.00432901
4.21004e-09
0.00432901
2.58946e-09
0.00432901
2.93135e-09
0.00432901
1.60644e-09
0.00432901
1.59644e-09
0.00432901
3.57225e-10
0.00432901
1.57463e-09
0.00432901
8.86572e-10
0.00432901
9.65635e-10
0.00432901
2.74967e-10
0.00432901
9.41006e-10
0.00432901
-1.81277e-10
0.00432901
6.01059e-10
0.00432901
2.89012e-12
0.00432901
5.777e-10
0.00432901
-4.28855e-10
0.00432901
3.64261e-10
0.00432901
-1.93441e-10
0.00432901
5.07968e-10
0.00432901
2.79858e-10
0.00432901
7.13313e-10
0.00432901
-1.00478e-10
0.00432901
2.9809e-10
0.00432901
1.26583e-10
0.00432901
9.35093e-10
0.00432901
-8.74567e-11
0.00432901
1.16492e-10
0.00432901
-3.90482e-10
0.00432901
4.1854e-10
0.00432901
-2.63146e-10
0.00432901
-8.77935e-11
0.00432901
-3.82385e-10
0.00432901
6.1955e-10
0.00432901
3.63456e-11
0.00432901
4.73825e-10
0.00432901
-2.37529e-10
0.00432901
7.0527e-10
0.004329
7.0897e-10
0.004329
1.78926e-09
0.004329
2.02964e-09
0.004329
2.97365e-09
0.004329
4.2304e-09
0.00432899
6.59297e-09
0.00432899
9.19618e-09
0.00432898
1.32085e-08
0.00432897
1.80077e-08
0.00432895
2.57858e-08
0.00432893
3.57283e-08
0.0043289
5.012e-08
0.00432886
6.65377e-08
0.00432881
8.66522e-08
0.00432875
1.00555e-07
0.00432868
1.0508e-07
0.00432859
1.11378e-07
0.00432827
4.17359e-07
0.00432694
2.02802e-06
0.00432236
7.18291e-06
7.91052e-06
0.00507214
0.00252575
0.00495559
0.000521843
0.00492292
7.38115e-05
0.00492067
8.51279e-06
0.00492251
-7.55209e-06
0.00492136
3.95287e-06
0.0049197
4.39565e-06
0.00491763
5.85199e-06
0.00491587
4.78312e-06
0.00491434
4.21951e-06
0.00491307
3.43574e-06
0.00491201
2.89171e-06
0.00491113
2.39922e-06
0.00491038
2.02066e-06
0.00490975
1.7053e-06
0.00490922
1.4472e-06
0.00490876
1.23302e-06
0.00490837
1.05395e-06
0.00490803
9.02681e-07
0.00490774
7.70871e-07
0.00490749
6.59189e-07
0.00490728
5.59673e-07
0.00490709
4.7605e-07
0.00490694
4.01778e-07
0.00490681
3.37527e-07
0.0049067
2.8194e-07
0.00490661
2.35289e-07
0.00490653
1.9402e-07
0.00490647
1.59578e-07
0.00490642
1.29212e-07
0.00490638
1.0637e-07
0.00490634
8.52096e-08
0.00490631
6.91469e-08
0.00490629
5.45436e-08
0.00490627
4.46114e-08
0.00490626
3.53466e-08
0.00490625
2.87902e-08
0.00490624
2.22227e-08
0.00490623
1.80173e-08
0.00490623
1.32542e-08
0.00490622
1.12711e-08
0.00490622
8.19882e-09
0.00490622
7.36356e-09
0.00490621
4.56787e-09
0.00490621
4.81526e-09
0.00490621
2.82069e-09
0.00490621
2.86913e-09
0.00490621
1.08329e-09
0.00490621
2.11275e-09
0.00490621
1.01857e-09
0.00490621
1.16668e-09
0.00490621
8.76763e-11
0.00490621
1.33706e-09
0.00490621
-1.50852e-10
0.00490621
8.99948e-10
0.00490621
-2.34127e-10
0.00490621
6.15064e-10
0.00490621
-4.50138e-10
0.00490621
6.61168e-10
0.00490621
-2.07529e-10
0.00490621
6.40508e-10
0.00490621
2.28255e-10
0.00490621
1.21682e-09
0.00490621
1.35402e-10
0.00490621
5.84821e-10
0.00490621
-8.7125e-11
0.00490621
1.26271e-09
0.00490621
1.13557e-10
0.00490621
4.72235e-10
0.00490621
-8.12127e-10
0.00490621
8.53855e-11
0.00490621
-2.1386e-10
0.00490621
3.78892e-10
0.00490621
-5.25698e-10
0.00490621
4.09151e-10
0.00490621
-5.03502e-10
0.00490621
7.50675e-10
0.00490621
-1.57295e-11
0.00490621
1.08478e-09
0.0049062
1.17996e-09
0.0049062
2.67737e-09
0.0049062
3.47526e-09
0.0049062
5.34252e-09
0.0049062
7.19546e-09
0.00490619
1.09085e-08
0.00490619
1.49027e-08
0.00490618
2.12345e-08
0.00490617
2.89758e-08
0.00490615
4.16055e-08
0.00490613
5.77236e-08
0.0049061
8.0545e-08
0.00490606
1.07726e-07
0.00490601
1.42024e-07
0.00490594
1.70796e-07
0.00490584
2.01219e-07
0.00490569
2.56568e-07
0.00490522
8.91208e-07
0.0049036
3.64753e-06
0.00489776
1.30256e-05
2.27393e-05
0.00521003
0.00231572
0.00513971
0.000592166
0.00511263
0.000100888
0.00511151
9.63642e-06
0.0051126
-8.64853e-06
0.00511178
4.77352e-06
0.00511033
5.85077e-06
0.00510859
7.58672e-06
0.00510708
6.29937e-06
0.00510576
5.53563e-06
0.00510467
4.52667e-06
0.00510375
3.80837e-06
0.00510299
3.16458e-06
0.00510234
2.66709e-06
0.00510179
2.25298e-06
0.00510132
1.91545e-06
0.00510092
1.63566e-06
0.00510057
1.40064e-06
0.00510028
1.2023e-06
0.00510002
1.02899e-06
0.00509979
8.82523e-07
0.0050996
7.52151e-07
0.00509944
6.40909e-07
0.0050993
5.42584e-07
0.00509918
4.57218e-07
0.00509908
3.82844e-07
0.00509899
3.20637e-07
0.00509892
2.65556e-07
0.00509886
2.19199e-07
0.00509881
1.77952e-07
0.00509877
1.46207e-07
0.00509874
1.17544e-07
0.00509871
9.59146e-08
0.00509869
7.62957e-08
0.00509867
6.22122e-08
0.00509866
4.91908e-08
0.00509865
3.99291e-08
0.00509864
3.10351e-08
0.00509863
2.51213e-08
0.00509863
1.85191e-08
0.00509862
1.56288e-08
0.00509862
1.17342e-08
0.00509862
1.08048e-08
0.00509861
6.9495e-09
0.00509861
6.76337e-09
0.00509861
4.05362e-09
0.00509861
3.90493e-09
0.00509861
1.60321e-09
0.00509861
2.42901e-09
0.00509861
1.14702e-09
0.00509861
1.53514e-09
0.00509861
5.94085e-12
0.00509861
1.58037e-09
0.00509861
-3.68891e-11
0.00509861
1.27295e-09
0.00509861
-3.25428e-10
0.00509861
5.13339e-10
0.00509861
-7.65818e-10
0.00509861
8.36132e-10
0.00509861
1.50055e-11
0.00509861
8.03083e-10
0.00509861
-2.4559e-10
0.00509861
1.25761e-09
0.00509861
5.30193e-10
0.00509861
1.26906e-09
0.00509861
-9.98413e-11
0.00509861
1.23347e-09
0.00509861
1.16987e-10
0.00509861
1.13089e-09
0.00509861
-4.83613e-10
0.00509861
6.97819e-12
0.00509861
-4.32248e-10
0.00509861
5.78128e-10
0.00509861
-5.15618e-10
0.00509861
5.27589e-10
0.00509861
-8.65702e-10
0.00509861
7.02906e-10
0.00509861
8.70625e-11
0.00509861
1.5425e-09
0.00509861
1.77007e-09
0.0050986
3.5577e-09
0.0050986
4.6798e-09
0.0050986
7.46095e-09
0.0050986
1.00559e-08
0.00509859
1.4826e-08
0.00509859
1.99663e-08
0.00509858
2.83644e-08
0.00509857
3.89099e-08
0.00509856
5.58027e-08
0.00509854
7.74874e-08
0.00509851
1.0797e-07
0.00509847
1.45208e-07
0.00509842
1.94281e-07
0.00509835
2.41923e-07
0.00509824
3.12604e-07
0.00509806
4.41359e-07
0.00509749
1.45864e-06
0.00509583
5.30018e-06
0.00508957
1.92892e-05
3.78149e-05
0.0052334
0.00208232
0.00519429
0.000631274
0.00517363
0.000121548
0.00517332
9.95025e-06
0.00517395
-9.28228e-06
0.00517344
5.28499e-06
0.00517227
7.02387e-06
0.00517091
8.94759e-06
0.00516969
7.51362e-06
0.00516864
6.5899e-06
0.00516776
5.40529e-06
0.00516702
4.54827e-06
0.0051664
3.78457e-06
0.00516588
3.19077e-06
0.00516543
2.69863e-06
0.00516505
2.29839e-06
0.00516471
1.96683e-06
0.00516443
1.68726e-06
0.00516418
1.4517e-06
0.00516396
1.24568e-06
0.00516377
1.07072e-06
0.00516361
9.1541e-07
0.00516347
7.81533e-07
0.00516335
6.63201e-07
0.00516325
5.61049e-07
0.00516316
4.7098e-07
0.00516309
3.95189e-07
0.00516302
3.2826e-07
0.00516297
2.71747e-07
0.00516293
2.21154e-07
0.00516289
1.81839e-07
0.00516286
1.46664e-07
0.00516284
1.20027e-07
0.00516282
9.60607e-08
0.0051628
7.83836e-08
0.00516279
6.18887e-08
0.00516278
4.98515e-08
0.00516277
3.87141e-08
0.00516276
3.15813e-08
0.00516276
2.36982e-08
0.00516275
1.99845e-08
0.00516275
1.51312e-08
0.00516275
1.39135e-08
0.00516275
9.19713e-09
0.00516275
8.5256e-09
0.00516274
5.13935e-09
0.00516274
4.77801e-09
0.00516274
1.98879e-09
0.00516274
2.61917e-09
0.00516274
1.15682e-09
0.00516274
1.92509e-09
0.00516274
1.39416e-10
0.00516274
1.87763e-09
0.00516274
5.62992e-11
0.00516274
1.52553e-09
0.00516274
-4.05047e-10
0.00516274
4.64483e-10
0.00516274
-1.10907e-09
0.00516274
6.81788e-10
0.00516274
2.22803e-11
0.00516274
1.12402e-09
0.00516274
-4.61051e-10
0.00516274
1.07657e-09
0.00516274
5.96959e-10
0.00516274
1.91572e-09
0.00516274
3.17633e-10
0.00516274
1.55264e-09
0.00516274
6.89756e-11
0.00516274
1.38288e-09
0.00516274
-1.6378e-10
0.00516274
3.12982e-10
0.00516274
-5.27448e-10
0.00516274
4.95865e-10
0.00516274
-8.19322e-10
0.00516274
5.50719e-10
0.00516274
-1.03761e-09
0.00516274
6.13176e-10
0.00516274
-5.93974e-11
0.00516274
1.73792e-09
0.00516274
2.31942e-09
0.00516274
4.52338e-09
0.00516274
5.81616e-09
0.00516274
9.15395e-09
0.00516273
1.2384e-08
0.00516273
1.81788e-08
0.00516273
2.4375e-08
0.00516272
3.4413e-08
0.00516271
4.7271e-08
0.0051627
6.77695e-08
0.00516268
9.41119e-08
0.00516266
1.31237e-07
0.00516263
1.77583e-07
0.00516258
2.41344e-07
0.00516251
3.10464e-07
0.00516239
4.30853e-07
0.00516219
6.48298e-07
0.0051616
2.04266e-06
0.00516004
6.86656e-06
0.00515415
2.51727e-05
5.09458e-05
0.00522268
0.00185964
0.00520664
0.000647313
0.00519192
0.000136275
0.00519215
9.72095e-06
0.0051925
-9.63604e-06
0.00519226
5.52563e-06
0.00519139
7.89787e-06
0.0051904
9.9358e-06
0.00518949
8.41991e-06
0.0051887
7.37742e-06
0.00518804
6.06798e-06
0.00518748
5.10763e-06
0.00518701
4.25574e-06
0.00518661
3.59015e-06
0.00518627
3.04084e-06
0.00518597
2.59347e-06
0.00518571
2.22366e-06
0.00518549
1.91138e-06
0.0051853
1.64779e-06
0.00518512
1.41768e-06
0.00518497
1.22106e-06
0.00518484
1.0464e-06
0.00518473
8.95551e-07
0.00518463
7.61624e-07
0.00518455
6.46254e-07
0.00518447
5.44089e-07
0.00518441
4.56905e-07
0.00518436
3.79978e-07
0.00518432
3.15874e-07
0.00518428
2.57803e-07
0.00518425
2.12039e-07
0.00518422
1.71576e-07
0.0051842
1.40753e-07
0.00518419
1.12901e-07
0.00518417
9.20126e-08
0.00518416
7.28545e-08
0.00518415
5.87024e-08
0.00518415
4.54608e-08
0.00518414
3.72094e-08
0.00518413
2.84161e-08
0.00518413
2.40046e-08
0.00518413
1.82731e-08
0.00518413
1.67292e-08
0.00518412
1.11806e-08
0.00518412
9.91943e-09
0.00518412
5.83854e-09
0.00518412
5.41897e-09
0.00518412
2.40561e-09
0.00518412
2.97131e-09
0.00518412
1.23268e-09
0.00518412
2.33572e-09
0.00518412
4.78029e-10
0.00518412
2.32783e-09
0.00518412
1.61629e-10
0.00518412
1.56865e-09
0.00518412
-6.48675e-10
0.00518412
3.87451e-10
0.00518412
-1.28778e-09
0.00518412
4.86071e-10
0.00518412
-2.21666e-10
0.00518412
1.31037e-09
0.00518412
-3.90852e-10
0.00518412
1.20783e-09
0.00518412
6.54951e-10
0.00518412
2.2383e-09
0.00518412
5.6962e-10
0.00518412
1.9595e-09
0.00518412
2.43822e-10
0.00518412
1.50599e-09
0.00518412
-1.38941e-10
0.00518412
5.80077e-10
0.00518412
-4.07095e-10
0.00518412
5.95133e-10
0.00518412
-1.12441e-09
0.00518412
4.21778e-10
0.00518412
-1.16625e-09
0.00518412
6.87802e-10
0.00518412
-6.00702e-12
0.00518412
1.906e-09
0.00518412
2.70906e-09
0.00518412
5.30115e-09
0.00518412
6.81584e-09
0.00518411
1.05685e-08
0.00518411
1.41596e-08
0.00518411
2.08214e-08
0.00518411
2.80005e-08
0.0051841
3.94646e-08
0.00518409
5.40788e-08
0.00518409
7.73468e-08
0.00518407
1.07395e-07
0.00518405
1.49984e-07
0.00518403
2.04233e-07
0.00518399
2.81986e-07
0.00518392
3.73098e-07
0.00518381
5.48191e-07
0.0051836
8.58744e-07
0.00518303
2.61295e-06
0.00518165
8.24537e-06
0.0051766
3.02173e-05
6.15784e-05
0.00520401
0.00165562
0.00520555
0.000645775
0.00519615
0.000145675
0.00519673
9.13898e-06
0.00519691
-9.80646e-06
0.00519689
5.53552e-06
0.00519631
8.47976e-06
0.00519567
1.0575e-05
0.00519506
9.03135e-06
0.00519453
7.90947e-06
0.00519408
6.52224e-06
0.00519369
5.49255e-06
0.00519336
4.58306e-06
0.00519308
3.86916e-06
0.00519284
3.28214e-06
0.00519263
2.80322e-06
0.00519245
2.40717e-06
0.00519229
2.07349e-06
0.00519214
1.79085e-06
0.00519202
1.544e-06
0.00519191
1.33256e-06
0.00519181
1.14413e-06
0.00519172
9.81399e-07
0.00519165
8.36587e-07
0.00519158
7.11295e-07
0.00519153
6.00377e-07
0.00519148
5.05164e-07
0.00519144
4.20389e-07
0.0051914
3.50278e-07
0.00519138
2.86834e-07
0.00519135
2.36183e-07
0.00519133
1.91593e-07
0.00519131
1.57416e-07
0.0051913
1.26567e-07
0.00519129
1.03107e-07
0.00519128
8.18012e-08
0.00519127
6.61993e-08
0.00519127
5.12914e-08
0.00519126
4.20156e-08
0.00519126
3.22507e-08
0.00519126
2.7373e-08
0.00519125
2.09229e-08
0.00519125
1.89684e-08
0.00519125
1.27406e-08
0.00519125
1.09709e-08
0.00519125
6.39969e-09
0.00519125
6.03829e-09
0.00519125
2.98647e-09
0.00519124
3.60681e-09
0.00519124
1.58725e-09
0.00519124
2.79448e-09
0.00519124
7.87204e-10
0.00519124
2.59084e-09
0.00519124
1.13805e-10
0.00519124
1.4756e-09
0.00519124
-8.60997e-10
0.00519124
2.49474e-10
0.00519124
-1.42261e-09
0.00519124
4.34232e-10
0.00519124
-3.40503e-10
0.00519124
1.53456e-09
0.00519124
-2.24243e-10
0.00519125
1.44908e-09
0.00519125
8.1417e-10
0.00519125
2.42595e-09
0.00519125
6.2542e-10
0.00519124
2.1879e-09
0.00519125
4.59193e-10
0.00519124
1.65364e-09
0.00519124
-1.48463e-10
0.00519124
7.31386e-10
0.00519124
-2.74885e-10
0.00519124
8.43384e-10
0.00519124
-1.19168e-09
0.00519124
2.94188e-10
0.00519124
-1.36478e-09
0.00519124
6.75516e-10
0.00519124
1.30182e-10
0.00519124
2.04868e-09
0.00519124
2.91414e-09
0.00519124
5.77826e-09
0.00519124
7.54378e-09
0.00519124
1.17884e-08
0.00519124
1.55877e-08
0.00519124
2.27347e-08
0.00519123
3.06818e-08
0.00519123
4.3366e-08
0.00519123
5.92466e-08
0.00519122
8.44001e-08
0.00519121
1.17161e-07
0.0051912
1.64086e-07
0.00519118
2.25068e-07
0.00519114
3.15462e-07
0.00519109
4.28041e-07
0.00519098
6.57746e-07
0.00519078
1.05899e-06
0.00519026
3.13046e-06
0.00518913
9.37831e-06
0.00518513
3.4213e-05
6.96153e-05
0.00518542
0.00147021
0.0052006
0.000630595
0.00519591
0.000150361
0.0051967
8.34916e-06
0.00519673
-9.83773e-06
0.00519691
5.35906e-06
0.0051966
8.78848e-06
0.00519628
1.08946e-05
0.00519594
9.36803e-06
0.00519565
8.2031e-06
0.00519539
6.7804e-06
0.00519517
5.71318e-06
0.00519498
4.7741e-06
0.00519481
4.03392e-06
0.00519467
3.42648e-06
0.00519454
2.93111e-06
0.00519443
2.52034e-06
0.00519433
2.17504e-06
0.00519424
1.88209e-06
0.00519416
1.62538e-06
0.00519408
1.40535e-06
0.00519402
1.20896e-06
0.00519396
1.03904e-06
0.00519391
8.87843e-07
0.00519386
7.5616e-07
0.00519383
6.39265e-07
0.00519379
5.3888e-07
0.00519376
4.49002e-07
0.00519374
3.74502e-07
0.00519372
3.07612e-07
0.0051937
2.53941e-07
0.00519369
2.06499e-07
0.00519367
1.69676e-07
0.00519366
1.36617e-07
0.00519365
1.11486e-07
0.00519365
8.86086e-08
0.00519364
7.19912e-08
0.00519364
5.59267e-08
0.00519363
4.57526e-08
0.00519363
3.52417e-08
0.00519363
2.97676e-08
0.00519363
2.27781e-08
0.00519362
2.05342e-08
0.00519362
1.39867e-08
0.00519362
1.18168e-08
0.00519362
6.94192e-09
0.00519362
6.69463e-09
0.00519362
3.69646e-09
0.00519362
4.36721e-09
0.00519362
2.08641e-09
0.00519362
3.22242e-09
0.00519362
1.00969e-09
0.00519362
2.58552e-09
0.00519362
-5.31418e-11
0.00519362
1.33194e-09
0.00519362
-9.02556e-10
0.00519362
2.33289e-10
0.00519362
-1.47683e-09
0.00519362
5.68643e-10
0.00519362
-2.64653e-10
0.00519362
1.84171e-09
0.00519362
2.22103e-11
0.00519362
1.66101e-09
0.00519362
9.60605e-10
0.00519362
2.54225e-09
0.00519362
5.52155e-10
0.00519362
2.17717e-09
0.00519362
5.7879e-10
0.00519362
1.77826e-09
0.00519362
-7.03944e-11
0.00519362
8.70996e-10
0.00519362
-1.99861e-10
0.00519362
1.03251e-09
0.00519362
-1.15718e-09
0.00519362
1.7444e-10
0.00519362
-1.60601e-09
0.00519362
4.46777e-10
0.00519362
1.79245e-10
0.00519362
2.18396e-09
0.00519362
3.01257e-09
0.00519362
6.03832e-09
0.00519362
7.91792e-09
0.00519362
1.25858e-08
0.00519362
1.67063e-08
0.00519362
2.40482e-08
0.00519361
3.23554e-08
0.00519361
4.59386e-08
0.00519361
6.27598e-08
0.0051936
8.90407e-08
0.0051936
1.23542e-07
0.00519359
1.73569e-07
0.00519357
2.39884e-07
0.00519355
3.41096e-07
0.0051935
4.73183e-07
0.00519341
7.53236e-07
0.00519323
1.23582e-06
0.0051928
3.56401e-06
0.00519194
1.02327e-05
0.00518908
3.70727e-05
7.50836e-05
0.00516896
0.00130125
0.00519492
0.000604636
0.00519438
0.000150902
0.00519527
7.46033e-06
0.00519517
-9.74309e-06
0.00519549
5.041e-06
0.00519543
8.84832e-06
0.0051954
1.09255e-05
0.00519531
9.45224e-06
0.00519524
8.27733e-06
0.00519516
6.85655e-06
0.0051951
5.78101e-06
0.00519503
4.83735e-06
0.00519498
4.09135e-06
0.00519492
3.47936e-06
0.00519487
2.98097e-06
0.00519483
2.56678e-06
0.00519478
2.2183e-06
0.00519474
1.92292e-06
0.00519471
1.66323e-06
0.00519467
1.44028e-06
0.00519464
1.24144e-06
0.00519461
1.06865e-06
0.00519458
9.14902e-07
0.00519456
7.8034e-07
0.00519454
6.60516e-07
0.00519452
5.57684e-07
0.0051945
4.65532e-07
0.00519449
3.88732e-07
0.00519447
3.19992e-07
0.00519446
2.64886e-07
0.00519445
2.15906e-07
0.00519445
1.77364e-07
0.00519444
1.42876e-07
0.00519443
1.16939e-07
0.00519443
9.32091e-08
0.00519443
7.5916e-08
0.00519442
5.9145e-08
0.00519442
4.84038e-08
0.00519442
3.72331e-08
0.00519442
3.12562e-08
0.00519442
2.37819e-08
0.00519441
2.1415e-08
0.00519441
1.49231e-08
0.00519441
1.25318e-08
0.00519441
7.50193e-09
0.00519441
7.40216e-09
0.00519441
4.49049e-09
0.00519441
5.14722e-09
0.00519441
2.62643e-09
0.00519441
3.58706e-09
0.00519441
1.15248e-09
0.00519441
2.39662e-09
0.00519441
-2.80221e-10
0.00519441
1.18817e-09
0.00519441
-8.1651e-10
0.00519441
4.06019e-10
0.00519441
-1.4223e-09
0.00519441
8.2884e-10
0.00519441
-5.74963e-11
0.00519441
2.15532e-09
0.00519441
2.9187e-10
0.00519441
1.79655e-09
0.00519441
9.40445e-10
0.00519441
2.54842e-09
0.00519441
4.36069e-10
0.00519441
2.01906e-09
0.00519441
6.05088e-10
0.00519441
1.88222e-09
0.00519441
1.07078e-10
0.00519441
1.09991e-09
0.00519441
-1.60252e-10
0.00519441
1.0484e-09
0.00519441
-1.19195e-09
0.00519441
5.25182e-11
0.00519441
-1.73409e-09
0.00519441
2.00043e-10
0.00519441
1.14377e-10
0.00519441
2.25948e-09
0.00519441
3.01762e-09
0.00519441
6.10996e-09
0.00519441
8.08338e-09
0.00519441
1.30466e-08
0.00519441
1.74103e-08
0.00519441
2.47881e-08
0.00519441
3.31255e-08
0.00519441
4.71901e-08
0.00519441
6.45954e-08
0.0051944
9.13814e-08
0.0051944
1.26696e-07
0.0051944
1.7851e-07
0.00519439
2.48485e-07
0.00519437
3.58185e-07
0.00519434
5.06571e-07
0.00519426
8.29281e-07
0.00519412
1.37831e-06
0.00519379
3.89151e-06
0.00519323
1.07897e-05
0.00519153
3.87736e-05
7.80783e-05
0.00515492
0.00114633
0.00518951
0.000570048
0.0051926
0.000147804
0.00519352
6.54792e-06
0.00519329
-9.51948e-06
0.00519371
4.62312e-06
0.00519387
8.68531e-06
0.0051941
1.0698e-05
0.00519425
9.30662e-06
0.00519437
8.15144e-06
0.00519446
6.76532e-06
0.00519454
5.70799e-06
0.00519459
4.78227e-06
0.00519463
4.04883e-06
0.00519467
3.44709e-06
0.00519469
2.95726e-06
0.00519471
2.55011e-06
0.00519472
2.20632e-06
0.00519473
1.91541e-06
0.00519473
1.65939e-06
0.00519473
1.43884e-06
0.00519473
1.24241e-06
0.00519473
1.07084e-06
0.00519473
9.18027e-07
0.00519472
7.84107e-07
0.00519472
6.64486e-07
0.00519471
5.61927e-07
0.00519471
4.69992e-07
0.0051947
3.9312e-07
0.0051947
3.24004e-07
0.0051947
2.68722e-07
0.00519469
2.19501e-07
0.00519469
1.80487e-07
0.00519469
1.45469e-07
0.00519469
1.19362e-07
0.00519468
9.53787e-08
0.00519468
7.78749e-08
0.00519468
6.0671e-08
0.00519468
4.96801e-08
0.00519468
3.81899e-08
0.00519468
3.19018e-08
0.00519468
2.40491e-08
0.00519468
2.16405e-08
0.00519468
1.54561e-08
0.00519468
1.31736e-08
0.00519468
8.03385e-09
0.00519468
8.07934e-09
0.00519468
5.08707e-09
0.00519467
5.76985e-09
0.00519467
2.93834e-09
0.00519467
3.74775e-09
0.00519467
1.19301e-09
0.00519467
2.16561e-09
0.00519467
-4.98502e-10
0.00519467
1.05986e-09
0.00519467
-7.08716e-10
0.00519467
6.98875e-10
0.00519467
-1.24429e-09
0.00519467
1.12616e-09
0.00519468
1.22024e-10
0.00519468
2.38096e-09
0.00519468
4.96603e-10
0.00519468
1.86129e-09
0.00519468
7.67179e-10
0.00519468
2.45159e-09
0.00519468
3.9024e-10
0.00519468
1.90356e-09
0.00519468
6.3371e-10
0.00519468
2.05768e-09
0.00519468
3.64282e-10
0.00519468
1.41215e-09
0.00519468
-1.59035e-10
0.00519468
9.28868e-10
0.00519468
-1.30039e-09
0.00519468
-2.87181e-11
0.00519468
-1.6891e-09
0.00519468
7.71014e-11
0.00519468
-3.45303e-11
0.00519468
2.21186e-09
0.00519468
2.87055e-09
0.00519468
6.0712e-09
0.00519468
8.08672e-09
0.00519468
1.31361e-08
0.00519468
1.76468e-08
0.00519468
2.4967e-08
0.00519468
3.3083e-08
0.00519468
4.72418e-08
0.00519468
6.47956e-08
0.00519468
9.14971e-08
0.00519468
1.26757e-07
0.00519467
1.79064e-07
0.00519467
2.50846e-07
0.00519466
3.66197e-07
0.00519464
5.26618e-07
0.00519459
8.81557e-07
0.00519449
1.47831e-06
0.00519428
4.09824e-06
0.00519403
1.10405e-05
0.00519347
3.9334e-05
7.87402e-05
0.00514309
0.00100324
0.00518463
0.0005285
0.00519092
0.000141516
0.00519181
5.65951e-06
0.00519145
-9.15792e-06
0.00519193
4.14235e-06
0.00519229
8.32547e-06
0.00519275
1.02414e-05
0.0051931
8.95374e-06
0.0051934
7.84466e-06
0.00519365
6.52178e-06
0.00519385
5.5063e-06
0.00519401
4.61886e-06
0.00519415
3.91418e-06
0.00519426
3.33611e-06
0.00519435
2.86509e-06
0.00519443
2.47425e-06
0.00519449
2.14278e-06
0.00519454
1.86247e-06
0.00519459
1.61608e-06
0.00519462
1.40298e-06
0.00519465
1.21321e-06
0.00519468
1.04676e-06
0.0051947
8.98188e-07
0.00519471
7.68327e-07
0.00519472
6.51978e-07
0.00519473
5.52282e-07
0.00519474
4.62623e-07
0.00519475
3.87664e-07
0.00519475
3.19754e-07
0.00519475
2.6548e-07
0.00519476
2.17183e-07
0.00519476
1.78939e-07
0.00519476
1.4434e-07
0.00519476
1.1862e-07
0.00519476
9.48194e-08
0.00519476
7.76563e-08
0.00519476
6.05327e-08
0.00519476
4.95806e-08
0.00519476
3.80182e-08
0.00519476
3.17271e-08
0.00519476
2.36931e-08
0.00519476
2.12778e-08
0.00519476
1.55034e-08
0.00519476
1.36255e-08
0.00519476
8.48893e-09
0.00519476
8.59945e-09
0.00519476
5.39824e-09
0.00519476
6.05998e-09
0.00519476
2.99579e-09
0.00519476
3.69202e-09
0.00519476
1.14083e-09
0.00519476
2.0429e-09
0.00519476
-6.06087e-10
0.00519476
9.74708e-10
0.00519476
-6.81321e-10
0.00519476
1.00221e-09
0.00519476
-1.01153e-09
0.00519476
1.37323e-09
0.00519476
1.633e-10
0.00519476
2.39563e-09
0.00519476
5.81817e-10
0.00519476
1.86365e-09
0.00519476
5.2391e-10
0.00519476
2.33453e-09
0.00519476
4.47494e-10
0.00519476
1.98548e-09
0.00519476
7.08746e-10
0.00519476
2.31839e-09
0.00519476
5.92964e-10
0.00519476
1.685e-09
0.00519476
-2.2014e-10
0.00519476
7.56026e-10
0.00519476
-1.40275e-09
0.00519476
-5.75661e-11
0.00519476
-1.56905e-09
0.00519476
7.12771e-11
0.00519476
-2.22482e-10
0.00519476
2.08332e-09
0.00519476
2.71524e-09
0.00519476
5.91951e-09
0.00519476
7.97581e-09
0.00519476
1.28683e-08
0.00519476
1.72456e-08
0.00519477
2.45723e-08
0.00519477
3.23433e-08
0.00519477
4.62169e-08
0.00519477
6.34186e-08
0.00519477
8.94609e-08
0.00519477
1.23885e-07
0.00519478
1.75433e-07
0.00519478
2.47061e-07
0.00519478
3.64791e-07
0.00519478
5.32211e-07
0.00519475
9.06912e-07
0.0051947
1.53032e-06
0.00519462
4.17587e-06
0.00519468
1.09849e-05
0.00519521
3.88012e-05
7.72378e-05
0.00513317
0.000870071
0.00518035
0.00048132
0.00518942
0.000132442
0.00519026
4.82176e-06
0.00518975
-8.65008e-06
0.00519027
3.62953e-06
0.0051908
7.79419e-06
0.00519146
9.58362e-06
0.00519199
8.41592e-06
0.00519246
7.3761e-06
0.00519284
6.14123e-06
0.00519316
5.18836e-06
0.00519342
4.3572e-06
0.00519364
3.69562e-06
0.00519382
3.15303e-06
0.00519398
2.71018e-06
0.00519411
2.34368e-06
0.00519422
2.03176e-06
0.00519432
1.76766e-06
0.0051944
1.53587e-06
0.00519446
1.33489e-06
0.00519452
1.15561e-06
0.00519457
9.98033e-07
0.00519461
8.56982e-07
0.00519464
7.34248e-07
0.00519467
6.23951e-07
0.0051947
5.29412e-07
0.00519471
4.43857e-07
0.00519473
3.72507e-07
0.00519474
3.07489e-07
0.00519475
2.55436e-07
0.00519476
2.09076e-07
0.00519477
1.72644e-07
0.00519477
1.39383e-07
0.00519478
1.14677e-07
0.00519478
9.15437e-08
0.00519478
7.52375e-08
0.00519479
5.87109e-08
0.00519479
4.81184e-08
0.00519479
3.67404e-08
0.00519479
3.07244e-08
0.00519479
2.27727e-08
0.00519479
2.03668e-08
0.00519479
1.49384e-08
0.00519479
1.36086e-08
0.00519479
8.60599e-09
0.00519479
8.75242e-09
0.00519479
5.35028e-09
0.00519479
6.05672e-09
0.00519479
2.89483e-09
0.00519479
3.52112e-09
0.00519479
1.0513e-09
0.00519479
2.04254e-09
0.00519479
-5.41909e-10
0.00519479
9.18331e-10
0.00519479
-8.00435e-10
0.00519479
1.13371e-09
0.00519479
-8.16232e-10
0.00519479
1.51492e-09
0.00519479
2.26158e-11
0.00519479
2.21426e-09
0.00519479
5.82221e-10
0.00519479
1.87938e-09
0.00519479
3.54888e-10
0.00519479
2.28631e-09
0.00519479
6.54059e-10
0.00519479
2.26757e-09
0.00519479
8.46204e-10
0.00519479
2.53698e-09
0.00519479
7.25304e-10
0.00519479
1.80299e-09
0.00519479
-3.43051e-10
0.00519479
5.78565e-10
0.00519479
-1.46205e-09
0.00519479
-6.70922e-11
0.00519479
-1.51502e-09
0.00519479
3.37537e-11
0.00519479
-4.52618e-10
0.00519479
1.7752e-09
0.00519479
2.37169e-09
0.00519479
5.56007e-09
0.00519479
7.63551e-09
0.00519479
1.23531e-08
0.0051948
1.63717e-08
0.0051948
2.36046e-08
0.0051948
3.09616e-08
0.0051948
4.42106e-08
0.0051948
6.05544e-08
0.00519481
8.53793e-08
0.00519481
1.18243e-07
0.00519482
1.6782e-07
0.00519483
2.37313e-07
0.00519484
3.53866e-07
0.00519485
5.22764e-07
0.00519485
9.03485e-07
0.00519485
1.53122e-06
0.00519491
4.12176e-06
0.00519526
1.06308e-05
0.00519682
3.72437e-05
7.37574e-05
0.00512491
0.00074516
0.00517664
0.000429587
0.00518813
0.000120955
0.00518891
4.04653e-06
0.00518825
-7.9917e-06
0.00518877
3.10875e-06
0.00518945
7.11589e-06
0.00519028
8.75102e-06
0.00519098
7.71516e-06
0.00519159
6.76461e-06
0.00519209
5.63902e-06
0.00519251
4.76684e-06
0.00519286
4.00741e-06
0.00519316
3.4017e-06
0.00519341
2.90489e-06
0.00519362
2.49871e-06
0.0051938
2.16341e-06
0.00519395
1.87752e-06
0.00519409
1.63479e-06
0.0051942
1.42172e-06
0.0051943
1.23707e-06
0.00519438
1.07185e-06
0.00519445
9.26676e-07
0.00519451
7.96313e-07
0.00519456
6.83256e-07
0.00519461
5.81369e-07
0.00519464
4.93989e-07
0.00519467
4.14323e-07
0.0051947
3.48097e-07
0.00519472
2.87606e-07
0.00519473
2.39001e-07
0.00519475
1.95508e-07
0.00519476
1.61739e-07
0.00519477
1.30677e-07
0.00519477
1.07688e-07
0.00519478
8.57889e-08
0.00519478
7.0761e-08
0.00519479
5.52948e-08
0.00519479
4.53411e-08
0.00519479
3.44125e-08
0.0051948
2.88791e-08
0.0051948
2.1324e-08
0.0051948
1.89985e-08
0.0051948
1.38141e-08
0.0051948
1.3018e-08
0.0051948
8.30404e-09
0.0051948
8.57313e-09
0.0051948
5.08125e-09
0.0051948
5.85169e-09
0.0051948
2.76272e-09
0.0051948
3.34362e-09
0.0051948
9.70503e-10
0.0051948
2.08855e-09
0.0051948
-3.94362e-10
0.0051948
8.33766e-10
0.0051948
-1.09919e-09
0.0051948
1.00807e-09
0.0051948
-7.86394e-10
0.0051948
1.50957e-09
0.0051948
-2.4661e-10
0.0051948
1.90033e-09
0.0051948
5.72075e-10
0.0051948
1.96058e-09
0.0051948
3.21812e-10
0.0051948
2.33086e-09
0.0051948
9.65219e-10
0.0051948
2.6481e-09
0.0051948
1.00713e-09
0.0051948
2.63124e-09
0.0051948
7.4318e-10
0.0051948
1.80196e-09
0.0051948
-4.47974e-10
0.0051948
4.36107e-10
0.0051948
-1.46197e-09
0.0051948
-1.04944e-10
0.0051948
-1.60185e-09
0.0051948
-1.60438e-10
0.0051948
-7.7598e-10
0.0051948
1.39123e-09
0.0051948
1.96735e-09
0.0051948