/*--------------------------------*- C++ -*----------------------------------*\
| =========                 |                                                 |
| \\      /  F ield         | OpenFOAM: The Open Source CFD Toolbox           |
|  \\    /   O peration     | Version:  5.x                                   |
|   \\  /    A nd           | Web:      www.OpenFOAM.org                      |
|    \\/     M anipulation  |                                                 |
\*---------------------------------------------------------------------------*/
FoamFile
{
    version     2.0;
    format      ascii;
    class       volVectorField;
    location    "1.5";
    object      U;
}
// * * * * * * * * * * * * * * * * * * * * * * * * * * * * * * * * * * * * * //

dimensions      [0 1 -1 0 0 0 0];

internalField   nonuniform List<vector> 
4000
(
(0.537554 0.0563955 0)
(0.552189 0.00359566 0)
(0.517071 -0.00176462 0)
(0.522895 -0.00200121 0)
(0.52108 -0.00213074 0)
(0.522011 -0.00203768 0)
(0.521403 -0.00204468 0)
(0.521251 -0.00203476 0)
(0.520906 -0.00204432 0)
(0.520695 -0.00204823 0)
(0.520487 -0.00205383 0)
(0.520329 -0.00205747 0)
(0.520192 -0.00206086 0)
(0.52008 -0.0020634 0)
(0.519985 -0.00206546 0)
(0.519905 -0.0020671 0)
(0.519837 -0.00206842 0)
(0.519779 -0.00206953 0)
(0.51973 -0.00207043 0)
(0.519689 -0.00207118 0)
(0.519653 -0.00207179 0)
(0.519623 -0.00207234 0)
(0.519598 -0.00207279 0)
(0.519577 -0.00207318 0)
(0.519559 -0.0020735 0)
(0.519544 -0.00207378 0)
(0.519532 -0.002074 0)
(0.519522 -0.0020742 0)
(0.519514 -0.00207437 0)
(0.519507 -0.00207452 0)
(0.519501 -0.00207461 0)
(0.519497 -0.00207472 0)
(0.519494 -0.00207479 0)
(0.519491 -0.00207486 0)
(0.519489 -0.0020749 0)
(0.519487 -0.00207495 0)
(0.519485 -0.00207497 0)
(0.519484 -0.002075 0)
(0.519484 -0.00207501 0)
(0.519483 -0.00207504 0)
(0.519482 -0.00207505 0)
(0.519482 -0.00207506 0)
(0.519482 -0.00207506 0)
(0.519481 -0.00207507 0)
(0.519481 -0.00207507 0)
(0.519481 -0.00207509 0)
(0.519481 -0.00207509 0)
(0.519481 -0.0020751 0)
(0.519481 -0.00207507 0)
(0.519481 -0.00207508 0)
(0.519481 -0.00207509 0)
(0.519481 -0.00207509 0)
(0.519481 -0.00207508 0)
(0.519481 -0.0020751 0)
(0.519481 -0.00207509 0)
(0.519481 -0.00207509 0)
(0.519481 -0.00207509 0)
(0.519481 -0.0020751 0)
(0.519481 -0.00207509 0)
(0.519481 -0.0020751 0)
(0.519481 -0.00207509 0)
(0.519481 -0.00207509 0)
(0.519481 -0.00207508 0)
(0.519481 -0.00207509 0)
(0.519481 -0.00207509 0)
(0.519481 -0.0020751 0)
(0.519481 -0.00207508 0)
(0.519481 -0.00207509 0)
(0.519481 -0.00207509 0)
(0.519481 -0.0020751 0)
(0.519481 -0.00207509 0)
(0.519481 -0.0020751 0)
(0.519481 -0.00207509 0)
(0.519481 -0.00207509 0)
(0.519481 -0.00207508 0)
(0.519481 -0.00207509 0)
(0.519481 -0.00207509 0)
(0.519481 -0.00207509 0)
(0.519481 -0.00207508 0)
(0.519481 -0.00207509 0)
(0.519481 -0.00207508 0)
(0.51948 -0.00207507 0)
(0.51948 -0.00207507 0)
(0.51948 -0.00207505 0)
(0.519479 -0.00207503 0)
(0.519479 -0.00207501 0)
(0.519478 -0.00207497 0)
(0.519477 -0.00207492 0)
(0.519475 -0.00207485 0)
(0.519473 -0.00207476 0)
(0.519469 -0.00207463 0)
(0.519464 -0.0020745 0)
(0.519458 -0.00207435 0)
(0.51945 -0.00207434 0)
(0.519444 -0.00207463 0)
(0.519436 -0.00207528 0)
(0.519442 -0.00207439 0)
(0.51936 -0.00206119 0)
(0.519228 -0.00202118 0)
(0.518638 -0.0021516 0)
(0.864915 0.12845 0)
(0.911579 0.0160015 0)
(0.861966 0.000985914 0)
(0.871357 -7.1023e-05 0)
(0.867969 -0.000505102 0)
(0.869556 -0.000190233 0)
(0.868596 -0.000201617 0)
(0.868426 -0.000163631 0)
(0.867912 -0.000193156 0)
(0.867613 -0.000205716 0)
(0.867306 -0.000224892 0)
(0.867076 -0.000237666 0)
(0.866873 -0.000249701 0)
(0.866708 -0.00025898 0)
(0.866567 -0.000266242 0)
(0.866449 -0.000272112 0)
(0.866348 -0.000276912 0)
(0.866262 -0.000280978 0)
(0.866188 -0.000284403 0)
(0.866125 -0.000287342 0)
(0.866072 -0.000289819 0)
(0.866026 -0.000292003 0)
(0.865987 -0.000293843 0)
(0.865954 -0.000295483 0)
(0.865927 -0.000296851 0)
(0.865904 -0.000298037 0)
(0.865884 -0.000299015 0)
(0.865868 -0.000299876 0)
(0.865855 -0.000300612 0)
(0.865844 -0.000301249 0)
(0.865836 -0.00030171 0)
(0.865829 -0.000302161 0)
(0.865823 -0.000302481 0)
(0.865818 -0.000302781 0)
(0.865815 -0.000302966 0)
(0.865812 -0.000303163 0)
(0.865809 -0.000303284 0)
(0.865808 -0.00030341 0)
(0.865806 -0.000303478 0)
(0.865805 -0.000303581 0)
(0.865804 -0.000303629 0)
(0.865803 -0.000303696 0)
(0.865803 -0.000303704 0)
(0.865802 -0.000303752 0)
(0.865802 -0.000303744 0)
(0.865802 -0.000303803 0)
(0.865802 -0.000303804 0)
(0.865802 -0.000303841 0)
(0.865801 -0.000303777 0)
(0.865801 -0.000303809 0)
(0.865801 -0.000303813 0)
(0.865801 -0.000303838 0)
(0.865801 -0.000303814 0)
(0.865801 -0.000303852 0)
(0.865801 -0.000303818 0)
(0.865801 -0.000303843 0)
(0.865801 -0.000303827 0)
(0.865801 -0.000303864 0)
(0.865801 -0.000303826 0)
(0.865801 -0.000303853 0)
(0.865801 -0.000303827 0)
(0.865801 -0.000303832 0)
(0.865801 -0.000303811 0)
(0.865801 -0.000303843 0)
(0.865801 -0.000303839 0)
(0.865801 -0.000303846 0)
(0.865801 -0.000303809 0)
(0.865801 -0.000303841 0)
(0.865801 -0.000303833 0)
(0.865801 -0.000303856 0)
(0.865801 -0.00030383 0)
(0.865801 -0.000303859 0)
(0.865801 -0.000303846 0)
(0.865801 -0.00030385 0)
(0.865801 -0.000303814 0)
(0.865801 -0.000303841 0)
(0.865801 -0.000303829 0)
(0.865801 -0.000303852 0)
(0.865801 -0.000303812 0)
(0.865801 -0.000303819 0)
(0.865801 -0.000303783 0)
(0.865801 -0.000303781 0)
(0.8658 -0.000303747 0)
(0.8658 -0.000303702 0)
(0.865799 -0.000303624 0)
(0.865798 -0.000303538 0)
(0.865797 -0.000303401 0)
(0.865795 -0.000303237 0)
(0.865792 -0.000302974 0)
(0.865789 -0.000302644 0)
(0.865784 -0.000302166 0)
(0.865776 -0.000301637 0)
(0.865767 -0.000300997 0)
(0.865755 -0.000300649 0)
(0.865742 -0.000300873 0)
(0.865724 -0.000301449 0)
(0.865718 -0.000293347 0)
(0.865546 -0.00023958 0)
(0.865253 -7.34427e-05 0)
(0.863186 -0.00021918 0)
(0.960328 0.135898 0)
(1.02535 0.0244286 0)
(0.976328 0.00334247 0)
(0.987418 0.000824447 0)
(0.983107 0.000103084 0)
(0.98501 0.000608148 0)
(0.983936 0.000613797 0)
(0.983842 0.000677937 0)
(0.983318 0.000630242 0)
(0.983039 0.000606804 0)
(0.982735 0.000573004 0)
(0.982512 0.000549757 0)
(0.982313 0.000528312 0)
(0.982152 0.000511668 0)
(0.982014 0.000498364 0)
(0.981897 0.000487601 0)
(0.981798 0.000478704 0)
(0.981712 0.000471242 0)
(0.981639 0.000464938 0)
(0.981576 0.000459472 0)
(0.981522 0.000454842 0)
(0.981476 0.000450722 0)
(0.981437 0.000447276 0)
(0.981403 0.000444221 0)
(0.981374 0.000441601 0)
(0.981351 0.000439334 0)
(0.98133 0.000437441 0)
(0.981314 0.000435776 0)
(0.9813 0.00043438 0)
(0.981288 0.00043314 0)
(0.981279 0.000432215 0)
(0.981272 0.000431354 0)
(0.981265 0.000430711 0)
(0.98126 0.00043012 0)
(0.981256 0.00042973 0)
(0.981253 0.000429355 0)
(0.981251 0.000429089 0)
(0.981249 0.000428829 0)
(0.981247 0.000428679 0)
(0.981246 0.000428487 0)
(0.981245 0.000428402 0)
(0.981244 0.000428275 0)
(0.981243 0.000428241 0)
(0.981243 0.000428129 0)
(0.981242 0.000428148 0)
(0.981242 0.000428065 0)
(0.981242 0.000428067 0)
(0.981242 0.00042799 0)
(0.981242 0.000428048 0)
(0.981241 0.000428003 0)
(0.981241 0.000428009 0)
(0.981241 0.000427964 0)
(0.981241 0.000428014 0)
(0.981241 0.000427946 0)
(0.981241 0.000427993 0)
(0.981241 0.00042795 0)
(0.981241 0.000427987 0)
(0.981241 0.000427933 0)
(0.981241 0.000427982 0)
(0.981241 0.000427946 0)
(0.981241 0.000427986 0)
(0.981241 0.000427968 0)
(0.981241 0.000428003 0)
(0.981241 0.000427955 0)
(0.981241 0.000427979 0)
(0.981241 0.000427957 0)
(0.981241 0.000428011 0)
(0.981241 0.000427953 0)
(0.981241 0.000427968 0)
(0.981242 0.000427925 0)
(0.981242 0.00042797 0)
(0.981242 0.000427943 0)
(0.981242 0.000427963 0)
(0.981242 0.000427932 0)
(0.981241 0.000427983 0)
(0.981241 0.000427944 0)
(0.981241 0.000427987 0)
(0.981241 0.000427947 0)
(0.981241 0.000427999 0)
(0.981241 0.000428001 0)
(0.981241 0.000428066 0)
(0.981241 0.00042809 0)
(0.98124 0.000428158 0)
(0.98124 0.000428236 0)
(0.981239 0.000428389 0)
(0.981238 0.000428552 0)
(0.981237 0.000428808 0)
(0.981235 0.000429119 0)
(0.981232 0.000429625 0)
(0.981229 0.00043027 0)
(0.981223 0.000431192 0)
(0.981216 0.000432263 0)
(0.981206 0.000433587 0)
(0.981193 0.000434574 0)
(0.981179 0.000435215 0)
(0.981153 0.000436342 0)
(0.981132 0.00045877 0)
(0.980909 0.000569032 0)
(0.980542 0.000943087 0)
(0.977595 0.00117802 0)
(0.984981 0.123283 0)
(1.05951 0.028655 0)
(1.01376 0.00469072 0)
(1.02592 0.000700239 0)
(1.02101 -0.000185454 0)
(1.02312 0.000442434 0)
(1.02201 0.000480596 0)
(1.02202 0.000563239 0)
(1.02153 0.000502234 0)
(1.02131 0.000467825 0)
(1.02104 0.000420927 0)
(1.02085 0.00038753 0)
(1.02067 0.000356993 0)
(1.02053 0.000332989 0)
(1.02041 0.00031374 0)
(1.02031 0.00029863 0)
(1.02022 0.000286102 0)
(1.02015 0.000275596 0)
(1.02009 0.000266728 0)
(1.02003 0.000258987 0)
(1.01998 0.000252435 0)
(1.01994 0.000246607 0)
(1.0199 0.000241669 0)
(1.01987 0.000237293 0)
(1.01985 0.000233502 0)
(1.01982 0.00023021 0)
(1.01981 0.000227452 0)
(1.01979 0.000225011 0)
(1.01978 0.000222971 0)
(1.01977 0.000221164 0)
(1.01976 0.000219786 0)
(1.01975 0.00021853 0)
(1.01974 0.000217578 0)
(1.01974 0.000216717 0)
(1.01974 0.000216113 0)
(1.01973 0.000215553 0)
(1.01973 0.000215159 0)
(1.01973 0.000214773 0)
(1.01973 0.000214518 0)
(1.01973 0.000214234 0)
(1.01972 0.000214112 0)
(1.01972 0.000213936 0)
(1.01972 0.000213892 0)
(1.01972 0.000213725 0)
(1.01972 0.000213727 0)
(1.01972 0.000213609 0)
(1.01972 0.000213607 0)
(1.01972 0.000213507 0)
(1.01972 0.000213554 0)
(1.01972 0.000213492 0)
(1.01972 0.000213505 0)
(1.01972 0.000213439 0)
(1.01972 0.000213511 0)
(1.01972 0.000213432 0)
(1.01972 0.000213492 0)
(1.01972 0.000213424 0)
(1.01972 0.000213467 0)
(1.01972 0.000213408 0)
(1.01972 0.000213476 0)
(1.01972 0.000213433 0)
(1.01972 0.000213475 0)
(1.01972 0.000213438 0)
(1.01972 0.000213501 0)
(1.01972 0.000213454 0)
(1.01972 0.000213483 0)
(1.01972 0.000213432 0)
(1.01972 0.000213501 0)
(1.01972 0.000213443 0)
(1.01972 0.000213477 0)
(1.01972 0.000213403 0)
(1.01972 0.000213439 0)
(1.01972 0.000213422 0)
(1.01972 0.000213463 0)
(1.01972 0.000213412 0)
(1.01972 0.000213461 0)
(1.01972 0.000213403 0)
(1.01972 0.000213475 0)
(1.01972 0.00021344 0)
(1.01972 0.000213503 0)
(1.01972 0.000213511 0)
(1.01972 0.000213593 0)
(1.01972 0.000213642 0)
(1.01972 0.00021376 0)
(1.01972 0.000213871 0)
(1.01972 0.000214086 0)
(1.01972 0.000214316 0)
(1.01972 0.000214683 0)
(1.01972 0.000215141 0)
(1.01971 0.000215884 0)
(1.01971 0.000216835 0)
(1.01971 0.000218174 0)
(1.0197 0.000219788 0)
(1.01969 0.000221865 0)
(1.01968 0.000223732 0)
(1.01966 0.000226118 0)
(1.01963 0.000230489 0)
(1.0196 0.000271493 0)
(1.01935 0.000444044 0)
(1.01899 0.00104962 0)
(1.01589 0.00176927 0)
(0.988584 0.109957 0)
(1.06797 0.0309627 0)
(1.0256 0.00569653 0)
(1.03852 0.000546939 0)
(1.03319 -0.000407836 0)
(1.03547 0.000296742 0)
(1.03434 0.000368947 0)
(1.03445 0.000463046 0)
(1.03402 0.00039322 0)
(1.03386 0.000349751 0)
(1.03364 0.000292855 0)
(1.03349 0.000251606 0)
(1.03334 0.000214289 0)
(1.03323 0.000184892 0)
(1.03313 0.000161168 0)
(1.03305 0.000142459 0)
(1.03298 0.00012695 0)
(1.03292 0.00011388 0)
(1.03286 0.000102833 0)
(1.03281 9.31558e-05 0)
(1.03277 8.49328e-05 0)
(1.03274 7.75979e-05 0)
(1.03271 7.12697e-05 0)
(1.03268 6.56339e-05 0)
(1.03266 6.0714e-05 0)
(1.03264 5.63451e-05 0)
(1.03262 5.26164e-05 0)
(1.03261 4.93571e-05 0)
(1.0326 4.67606e-05 0)
(1.03259 4.44457e-05 0)
(1.03258 4.2651e-05 0)
(1.03258 4.10422e-05 0)
(1.03257 3.98276e-05 0)
(1.03257 3.87305e-05 0)
(1.03256 3.79317e-05 0)
(1.03256 3.71903e-05 0)
(1.03256 3.66563e-05 0)
(1.03255 3.6155e-05 0)
(1.03255 3.58303e-05 0)
(1.03255 3.54653e-05 0)
(1.03255 3.52988e-05 0)
(1.03255 3.50784e-05 0)
(1.03255 3.50238e-05 0)
(1.03255 3.48077e-05 0)
(1.03255 3.47869e-05 0)
(1.03255 3.46349e-05 0)
(1.03255 3.46221e-05 0)
(1.03255 3.44939e-05 0)
(1.03255 3.45302e-05 0)
(1.03255 3.44608e-05 0)
(1.03255 3.44899e-05 0)
(1.03255 3.44058e-05 0)
(1.03255 3.44895e-05 0)
(1.03255 3.44031e-05 0)
(1.03255 3.44733e-05 0)
(1.03255 3.43852e-05 0)
(1.03255 3.44284e-05 0)
(1.03255 3.4356e-05 0)
(1.03255 3.4441e-05 0)
(1.03255 3.44044e-05 0)
(1.03255 3.44522e-05 0)
(1.03255 3.43845e-05 0)
(1.03255 3.44603e-05 0)
(1.03255 3.44304e-05 0)
(1.03255 3.44824e-05 0)
(1.03255 3.44081e-05 0)
(1.03255 3.44722e-05 0)
(1.03255 3.44067e-05 0)
(1.03255 3.44657e-05 0)
(1.03255 3.43873e-05 0)
(1.03255 3.44115e-05 0)
(1.03255 3.4379e-05 0)
(1.03255 3.44305e-05 0)
(1.03255 3.43698e-05 0)
(1.03255 3.44311e-05 0)
(1.03255 3.4356e-05 0)
(1.03255 3.44365e-05 0)
(1.03255 3.44041e-05 0)
(1.03255 3.44856e-05 0)
(1.03255 3.45061e-05 0)
(1.03255 3.46069e-05 0)
(1.03255 3.46677e-05 0)
(1.03255 3.48227e-05 0)
(1.03255 3.49687e-05 0)
(1.03255 3.52351e-05 0)
(1.03255 3.55219e-05 0)
(1.03254 3.59863e-05 0)
(1.03254 3.65735e-05 0)
(1.03254 3.75139e-05 0)
(1.03254 3.87238e-05 0)
(1.03253 4.04276e-05 0)
(1.03253 4.25302e-05 0)
(1.03252 4.53556e-05 0)
(1.03251 4.82561e-05 0)
(1.03249 5.32582e-05 0)
(1.03246 6.23044e-05 0)
(1.03242 0.000123546 0)
(1.03218 0.000349143 0)
(1.03186 0.00116815 0)
(1.02902 0.00229701 0)
(0.986405 0.0982745 0)
(1.06825 0.032189 0)
(1.02898 0.00652212 0)
(1.04245 0.000501412 0)
(1.03682 -0.000473211 0)
(1.03924 0.000275792 0)
(1.03811 0.000379607 0)
(1.03832 0.000479637 0)
(1.03795 0.00040516 0)
(1.03785 0.000355464 0)
(1.03767 0.000292418 0)
(1.03756 0.000246439 0)
(1.03745 0.000205537 0)
(1.03737 0.000173613 0)
(1.03729 0.000147248 0)
(1.03723 0.000125813 0)
(1.03717 0.000108056 0)
(1.03712 9.30551e-05 0)
(1.03708 8.03824e-05 0)
(1.03704 6.92874e-05 0)
(1.03701 5.98077e-05 0)
(1.03698 5.13594e-05 0)
(1.03696 4.40343e-05 0)
(1.03694 3.75009e-05 0)
(1.03692 3.18213e-05 0)
(1.0369 2.67449e-05 0)
(1.03689 2.23748e-05 0)
(1.03688 1.85577e-05 0)
(1.03687 1.55124e-05 0)
(1.03686 1.27725e-05 0)
(1.03685 1.06246e-05 0)
(1.03685 8.71238e-06 0)
(1.03684 7.25577e-06 0)
(1.03684 5.94196e-06 0)
(1.03684 4.96265e-06 0)
(1.03683 4.05105e-06 0)
(1.03683 3.37774e-06 0)
(1.03683 2.74539e-06 0)
(1.03683 2.34085e-06 0)
(1.03683 1.89389e-06 0)
(1.03683 1.68268e-06 0)
(1.03683 1.41779e-06 0)
(1.03683 1.34711e-06 0)
(1.03682 1.08939e-06 0)
(1.03682 1.04162e-06 0)
(1.03682 8.54664e-07 0)
(1.03682 8.3404e-07 0)
(1.03682 6.86968e-07 0)
(1.03682 7.16868e-07 0)
(1.03682 6.36825e-07 0)
(1.03682 6.83449e-07 0)
(1.03682 5.91003e-07 0)
(1.03682 6.82393e-07 0)
(1.03682 5.83223e-07 0)
(1.03682 6.55533e-07 0)
(1.03682 5.51035e-07 0)
(1.03682 5.98752e-07 0)
(1.03682 5.17625e-07 0)
(1.03682 6.07201e-07 0)
(1.03682 5.72237e-07 0)
(1.03682 6.38553e-07 0)
(1.03682 5.55937e-07 0)
(1.03682 6.34159e-07 0)
(1.03682 6.07839e-07 0)
(1.03682 6.80955e-07 0)
(1.03682 5.99291e-07 0)
(1.03682 6.65851e-07 0)
(1.03682 5.85668e-07 0)
(1.03682 6.49851e-07 0)
(1.03682 5.69689e-07 0)
(1.03682 6.0047e-07 0)
(1.03682 5.54933e-07 0)
(1.03682 6.05649e-07 0)
(1.03682 5.28879e-07 0)
(1.03682 6.02463e-07 0)
(1.03682 5.22664e-07 0)
(1.03682 6.11071e-07 0)
(1.03682 5.77105e-07 0)
(1.03682 6.69838e-07 0)
(1.03682 7.0497e-07 0)
(1.03682 8.25823e-07 0)
(1.03682 8.96279e-07 0)
(1.03682 1.07536e-06 0)
(1.03682 1.24676e-06 0)
(1.03682 1.55988e-06 0)
(1.03682 1.8979e-06 0)
(1.03682 2.47589e-06 0)
(1.03682 3.19656e-06 0)
(1.03682 4.32322e-06 0)
(1.03682 5.76181e-06 0)
(1.03681 7.7835e-06 0)
(1.03681 1.03247e-05 0)
(1.0368 1.38828e-05 0)
(1.03679 1.78943e-05 0)
(1.03678 2.55872e-05 0)
(1.03674 3.93185e-05 0)
(1.0367 0.000119291 0)
(1.03647 0.000383811 0)
(1.03621 0.00139849 0)
(1.03382 0.0028468 0)
(0.983105 0.0876663 0)
(1.06612 0.0325017 0)
(1.0296 0.00711398 0)
(1.04349 0.00047768 0)
(1.03764 -0.000486612 0)
(1.04017 0.00028068 0)
(1.03905 0.000414598 0)
(1.03935 0.000518497 0)
(1.03903 0.000441559 0)
(1.03899 0.000387076 0)
(1.03886 0.000319266 0)
(1.03879 0.000269242 0)
(1.03871 0.000225013 0)
(1.03865 0.000190407 0)
(1.0386 0.000161847 0)
(1.03855 0.00013851 0)
(1.03851 0.000119207 0)
(1.03848 0.000102926 0)
(1.03844 8.9157e-05 0)
(1.03842 7.71324e-05 0)
(1.03839 6.68434e-05 0)
(1.03837 5.7683e-05 0)
(1.03835 4.97697e-05 0)
(1.03834 4.27326e-05 0)
(1.03832 3.66504e-05 0)
(1.03831 3.12643e-05 0)
(1.0383 2.66469e-05 0)
(1.03829 2.25548e-05 0)
(1.03828 1.91655e-05 0)
(1.03828 1.60955e-05 0)
(1.03827 1.36521e-05 0)
(1.03827 1.14923e-05 0)
(1.03826 9.83534e-06 0)
(1.03826 8.33212e-06 0)
(1.03826 7.18852e-06 0)
(1.03826 6.13166e-06 0)
(1.03826 5.34346e-06 0)
(1.03825 4.58016e-06 0)
(1.03825 4.08947e-06 0)
(1.03825 3.5814e-06 0)
(1.03825 3.33847e-06 0)
(1.03825 3.03247e-06 0)
(1.03825 2.94502e-06 0)
(1.03825 2.64921e-06 0)
(1.03825 2.57219e-06 0)
(1.03825 2.35546e-06 0)
(1.03825 2.33484e-06 0)
(1.03825 2.18227e-06 0)
(1.03825 2.21158e-06 0)
(1.03825 2.11808e-06 0)
(1.03825 2.17575e-06 0)
(1.03825 2.07828e-06 0)
(1.03825 2.17133e-06 0)
(1.03825 2.05612e-06 0)
(1.03825 2.12521e-06 0)
(1.03825 2.01006e-06 0)
(1.03825 2.06384e-06 0)
(1.03825 1.98077e-06 0)
(1.03825 2.07232e-06 0)
(1.03825 2.03407e-06 0)
(1.03825 2.11894e-06 0)
(1.03825 2.03251e-06 0)
(1.03825 2.115e-06 0)
(1.03825 2.08511e-06 0)
(1.03825 2.16484e-06 0)
(1.03825 2.07726e-06 0)
(1.03825 2.15168e-06 0)
(1.03825 2.06678e-06 0)
(1.03825 2.12846e-06 0)
(1.03825 2.04133e-06 0)
(1.03825 2.08113e-06 0)
(1.03825 2.03132e-06 0)
(1.03825 2.08463e-06 0)
(1.03825 1.99059e-06 0)
(1.03825 2.06694e-06 0)
(1.03825 1.98527e-06 0)
(1.03825 2.08302e-06 0)
(1.03825 2.05275e-06 0)
(1.03825 2.14892e-06 0)
(1.03825 2.19054e-06 0)
(1.03825 2.32681e-06 0)
(1.03825 2.40919e-06 0)
(1.03825 2.61103e-06 0)
(1.03825 2.79663e-06 0)
(1.03825 3.14285e-06 0)
(1.03825 3.52697e-06 0)
(1.03825 4.18549e-06 0)
(1.03825 5.03538e-06 0)
(1.03824 6.32231e-06 0)
(1.03824 7.95365e-06 0)
(1.03824 1.02454e-05 0)
(1.03824 1.31723e-05 0)
(1.03823 1.74187e-05 0)
(1.03822 2.25422e-05 0)
(1.03821 3.27291e-05 0)
(1.03818 5.06652e-05 0)
(1.03814 0.000147032 0)
(1.03794 0.000446051 0)
(1.03774 0.00162563 0)
(1.03587 0.0033129 0)
(0.980016 0.0779582 0)
(1.06351 0.0320483 0)
(1.02938 0.00745863 0)
(1.04357 0.000442041 0)
(1.03756 -0.000491188 0)
(1.04018 0.00027589 0)
(1.03906 0.000436527 0)
(1.03945 0.000542123 0)
(1.03918 0.000464965 0)
(1.0392 0.000407406 0)
(1.0391 0.000336726 0)
(1.03907 0.000283971 0)
(1.03902 0.000237481 0)
(1.03899 0.000200917 0)
(1.03895 0.000170872 0)
(1.03892 0.000146356 0)
(1.0389 0.000126051 0)
(1.03888 0.000108966 0)
(1.03886 9.44852e-05 0)
(1.03884 8.18172e-05 0)
(1.03882 7.09645e-05 0)
(1.03881 6.12864e-05 0)
(1.0388 5.29224e-05 0)
(1.03879 4.54845e-05 0)
(1.03878 3.90296e-05 0)
(1.03877 3.33116e-05 0)
(1.03876 2.84071e-05 0)
(1.03876 2.40211e-05 0)
(1.03875 2.03716e-05 0)
(1.03875 1.70795e-05 0)
(1.03874 1.44408e-05 0)
(1.03874 1.21095e-05 0)
(1.03874 1.03047e-05 0)
(1.03873 8.67349e-06 0)
(1.03873 7.42583e-06 0)
(1.03873 6.27874e-06 0)
(1.03873 5.43156e-06 0)
(1.03873 4.60259e-06 0)
(1.03873 4.06852e-06 0)
(1.03873 3.52592e-06 0)
(1.03873 3.24589e-06 0)
(1.03873 2.88946e-06 0)
(1.03873 2.78386e-06 0)
(1.03872 2.46263e-06 0)
(1.03872 2.36241e-06 0)
(1.03872 2.1252e-06 0)
(1.03872 2.10896e-06 0)
(1.03872 1.95568e-06 0)
(1.03872 1.98807e-06 0)
(1.03872 1.88088e-06 0)
(1.03872 1.94039e-06 0)
(1.03872 1.83422e-06 0)
(1.03872 1.9192e-06 0)
(1.03872 1.79173e-06 0)
(1.03872 1.86063e-06 0)
(1.03872 1.74583e-06 0)
(1.03872 1.80131e-06 0)
(1.03872 1.71653e-06 0)
(1.03872 1.81494e-06 0)
(1.03872 1.77455e-06 0)
(1.03872 1.87435e-06 0)
(1.03872 1.78421e-06 0)
(1.03872 1.86707e-06 0)
(1.03872 1.83436e-06 0)
(1.03872 1.91475e-06 0)
(1.03872 1.81949e-06 0)
(1.03872 1.89865e-06 0)
(1.03872 1.81587e-06 0)
(1.03872 1.87608e-06 0)
(1.03872 1.78493e-06 0)
(1.03872 1.82998e-06 0)
(1.03872 1.77693e-06 0)
(1.03872 1.83571e-06 0)
(1.03872 1.73082e-06 0)
(1.03872 1.80219e-06 0)
(1.03872 1.71558e-06 0)
(1.03872 1.8171e-06 0)
(1.03872 1.79698e-06 0)
(1.03872 1.89598e-06 0)
(1.03872 1.93862e-06 0)
(1.03872 2.08665e-06 0)
(1.03872 2.17791e-06 0)
(1.03872 2.40278e-06 0)
(1.03872 2.60327e-06 0)
(1.03872 2.96737e-06 0)
(1.03872 3.404e-06 0)
(1.03872 4.10586e-06 0)
(1.03872 5.00425e-06 0)
(1.03872 6.36036e-06 0)
(1.03872 8.09883e-06 0)
(1.03872 1.05739e-05 0)
(1.03872 1.38026e-05 0)
(1.03871 1.86419e-05 0)
(1.0387 2.48047e-05 0)
(1.03869 3.76093e-05 0)
(1.03867 5.98345e-05 0)
(1.03863 0.0001706 0)
(1.03847 0.000495953 0)
(1.03834 0.0017984 0)
(1.03701 0.00365051 0)
(0.977427 0.0691155 0)
(1.06098 0.0309899 0)
(1.02893 0.00758113 0)
(1.04334 0.000397738 0)
(1.03722 -0.000490659 0)
(1.0399 0.000261849 0)
(1.03879 0.000444297 0)
(1.03925 0.00054942 0)
(1.03903 0.000474089 0)
(1.0391 0.000415223 0)
(1.03904 0.000343718 0)
(1.03904 0.000289812 0)
(1.03902 0.000242448 0)
(1.03901 0.000205055 0)
(1.03899 0.000174379 0)
(1.03898 0.000149384 0)
(1.03897 0.000128637 0)
(1.03896 0.000111188 0)
(1.03895 9.63919e-05 0)
(1.03895 8.34046e-05 0)
(1.03894 7.22626e-05 0)
(1.03893 6.23231e-05 0)
(1.03893 5.37043e-05 0)
(1.03892 4.60366e-05 0)
(1.03891 3.93427e-05 0)
(1.03891 3.33895e-05 0)
(1.03891 2.82784e-05 0)
(1.0389 2.37015e-05 0)
(1.0389 1.98909e-05 0)
(1.0389 1.64739e-05 0)
(1.03889 1.37343e-05 0)
(1.03889 1.13053e-05 0)
(1.03889 9.40338e-06 0)
(1.03889 7.69611e-06 0)
(1.03889 6.40372e-06 0)
(1.03889 5.22135e-06 0)
(1.03889 4.35707e-06 0)
(1.03888 3.51648e-06 0)
(1.03888 2.97677e-06 0)
(1.03888 2.41144e-06 0)
(1.03888 2.10138e-06 0)
(1.03888 1.71597e-06 0)
(1.03888 1.59864e-06 0)
(1.03888 1.26752e-06 0)
(1.03888 1.14974e-06 0)
(1.03888 8.94065e-07 0)
(1.03888 8.84797e-07 0)
(1.03888 7.27786e-07 0)
(1.03888 7.62359e-07 0)
(1.03888 6.40234e-07 0)
(1.03888 6.9402e-07 0)
(1.03888 5.77327e-07 0)
(1.03888 6.47379e-07 0)
(1.03888 5.13947e-07 0)
(1.03888 5.85446e-07 0)
(1.03888 4.78884e-07 0)
(1.03888 5.37552e-07 0)
(1.03888 4.48257e-07 0)
(1.03888 5.56176e-07 0)
(1.03888 5.13301e-07 0)
(1.03888 6.21785e-07 0)
(1.03888 5.29587e-07 0)
(1.03888 6.08275e-07 0)
(1.03888 5.69704e-07 0)
(1.03888 6.50111e-07 0)
(1.03888 5.46997e-07 0)
(1.03888 6.26962e-07 0)
(1.03888 5.51119e-07 0)
(1.03888 6.13217e-07 0)
(1.03888 5.22601e-07 0)
(1.03888 5.714e-07 0)
(1.03888 5.12185e-07 0)
(1.03888 5.73275e-07 0)
(1.03888 4.62394e-07 0)
(1.03888 5.27591e-07 0)
(1.03888 4.38265e-07 0)
(1.03888 5.37336e-07 0)
(1.03888 5.28371e-07 0)
(1.03888 6.33315e-07 0)
(1.03888 6.73868e-07 0)
(1.03888 8.29787e-07 0)
(1.03888 9.30794e-07 0)
(1.03888 1.18058e-06 0)
(1.03888 1.39922e-06 0)
(1.03888 1.77418e-06 0)
(1.03888 2.2229e-06 0)
(1.03888 2.94644e-06 0)
(1.03888 3.83056e-06 0)
(1.03888 5.18443e-06 0)
(1.03888 6.95519e-06 0)
(1.03888 9.52765e-06 0)
(1.03888 1.29642e-05 0)
(1.03888 1.82781e-05 0)
(1.03887 2.53427e-05 0)
(1.03886 4.05226e-05 0)
(1.03884 6.65289e-05 0)
(1.03881 0.000188496 0)
(1.0387 0.000530246 0)
(1.03863 0.00191139 0)
(1.03784 0.00385965 0)
(0.975329 0.0610413 0)
(1.05871 0.0294538 0)
(1.02846 0.00751024 0)
(1.04304 0.000351192 0)
(1.03682 -0.000483364 0)
(1.03954 0.000242408 0)
(1.03844 0.000440818 0)
(1.03897 0.000543561 0)
(1.03879 0.000471692 0)
(1.03891 0.000413116 0)
(1.03889 0.000342579 0)
(1.03892 0.000288958 0)
(1.03892 0.000241961 0)
(1.03893 0.000204762 0)
(1.03894 0.000174249 0)
(1.03894 0.000149405 0)
(1.03894 0.00012876 0)
(1.03895 0.000111357 0)
(1.03895 9.66154e-05 0)
(1.03895 8.36501e-05 0)
(1.03895 7.24983e-05 0)
(1.03895 6.25605e-05 0)
(1.03895 5.39013e-05 0)
(1.03895 4.61915e-05 0)
(1.03895 3.94387e-05 0)
(1.03894 3.34141e-05 0)
(1.03894 2.82449e-05 0)
(1.03894 2.36147e-05 0)
(1.03894 1.97499e-05 0)
(1.03894 1.62822e-05 0)
(1.03894 1.35063e-05 0)
(1.03894 1.10375e-05 0)
(1.03894 9.08673e-06 0)
(1.03894 7.33852e-06 0)
(1.03894 6.03003e-06 0)
(1.03894 4.83227e-06 0)
(1.03894 3.95796e-06 0)
(1.03894 3.10399e-06 0)
(1.03894 2.55833e-06 0)
(1.03894 1.98623e-06 0)
(1.03894 1.67428e-06 0)
(1.03894 1.28449e-06 0)
(1.03894 1.16269e-06 0)
(1.03894 8.40307e-07 0)
(1.03894 7.19808e-07 0)
(1.03894 4.57063e-07 0)
(1.03894 4.5587e-07 0)
(1.03894 2.99242e-07 0)
(1.03893 3.34402e-07 0)
(1.03893 1.97253e-07 0)
(1.03893 2.42404e-07 0)
(1.03893 1.16649e-07 0)
(1.03893 1.71603e-07 0)
(1.03893 3.59578e-08 0)
(1.03893 1.12451e-07 0)
(1.03893 1.54561e-08 0)
(1.03893 8.231e-08 0)
(1.03893 -1.2391e-08 0)
(1.03893 1.02139e-07 0)
(1.03894 5.59299e-08 0)
(1.03894 1.67469e-07 0)
(1.03894 7.42199e-08 0)
(1.03894 1.45999e-07 0)
(1.03894 9.69623e-08 0)
(1.03894 1.8073e-07 0)
(1.03894 7.44871e-08 0)
(1.03894 1.53627e-07 0)
(1.03894 8.43533e-08 0)
(1.03894 1.53721e-07 0)
(1.03894 6.50347e-08 0)
(1.03894 1.18502e-07 0)
(1.03894 4.60123e-08 0)
(1.03894 1.05471e-07 0)
(1.03894 -9.42256e-09 0)
(1.03894 5.5898e-08 0)
(1.03894 -3.09667e-08 0)
(1.03894 6.3179e-08 0)
(1.03894 5.76954e-08 0)
(1.03894 1.68657e-07 0)
(1.03894 2.04391e-07 0)
(1.03894 3.65565e-07 0)
(1.03894 4.7112e-07 0)
(1.03894 7.31202e-07 0)
(1.03894 9.58778e-07 0)
(1.03893 1.33258e-06 0)
(1.03893 1.75045e-06 0)
(1.03893 2.46165e-06 0)
(1.03893 3.33945e-06 0)
(1.03893 4.68315e-06 0)
(1.03893 6.45775e-06 0)
(1.03893 9.07543e-06 0)
(1.03893 1.26409e-05 0)
(1.03893 1.83064e-05 0)
(1.03893 2.60876e-05 0)
(1.03892 4.31735e-05 0)
(1.03891 7.2086e-05 0)
(1.03889 0.00020142 0)
(1.03882 0.000549904 0)
(1.03882 0.00196686 0)
(1.03856 0.00394855 0)
(0.973645 0.0536149 0)
(1.05672 0.0275335 0)
(1.02804 0.00726989 0)
(1.04273 0.000305457 0)
(1.03644 -0.000468936 0)
(1.03919 0.000219447 0)
(1.0381 0.000427324 0)
(1.03868 0.000526005 0)
(1.03854 0.000458844 0)
(1.0387 0.00040196 0)
(1.03871 0.000333922 0)
(1.03877 0.000281841 0)
(1.03879 0.000236285 0)
(1.03882 0.000200148 0)
(1.03885 0.000170504 0)
(1.03887 0.000146359 0)
(1.03888 0.000126308 0)
(1.0389 0.00010934 0)
(1.03891 9.49827e-05 0)
(1.03892 8.23566e-05 0)
(1.03892 7.14577e-05 0)
(1.03893 6.17521e-05 0)
(1.03893 5.32551e-05 0)
(1.03894 4.56779e-05 0)
(1.03894 3.90451e-05 0)
(1.03894 3.31104e-05 0)
(1.03895 2.80231e-05 0)
(1.03895 2.34574e-05 0)
(1.03895 1.96402e-05 0)
(1.03895 1.61948e-05 0)
(1.03895 1.34394e-05 0)
(1.03895 1.09878e-05 0)
(1.03895 9.04516e-06 0)
(1.03895 7.29541e-06 0)
(1.03895 5.99241e-06 0)
(1.03895 4.79251e-06 0)
(1.03895 3.92158e-06 0)
(1.03895 3.05836e-06 0)
(1.03895 2.50698e-06 0)
(1.03895 1.92945e-06 0)
(1.03895 1.61354e-06 0)
(1.03895 1.21513e-06 0)
(1.03895 1.09297e-06 0)
(1.03895 7.9213e-07 0)
(1.03895 6.8679e-07 0)
(1.03895 4.28112e-07 0)
(1.03895 4.32371e-07 0)
(1.03895 2.76263e-07 0)
(1.03895 3.09746e-07 0)
(1.03895 1.60461e-07 0)
(1.03895 1.98611e-07 0)
(1.03895 7.01366e-08 0)
(1.03895 1.1694e-07 0)
(1.03895 -1.7997e-08 0)
(1.03895 6.15608e-08 0)
(1.03895 -2.73985e-08 0)
(1.03895 5.20995e-08 0)
(1.03895 -4.70578e-08 0)
(1.03895 7.01704e-08 0)
(1.03895 1.61954e-08 0)
(1.03895 1.27468e-07 0)
(1.03895 3.55354e-08 0)
(1.03895 1.0143e-07 0)
(1.03895 4.01683e-08 0)
(1.03895 1.29004e-07 0)
(1.03895 2.77568e-08 0)
(1.03895 1.0692e-07 0)
(1.03895 4.04822e-08 0)
(1.03895 1.19325e-07 0)
(1.03895 3.08515e-08 0)
(1.03895 8.7583e-08 0)
(1.03895 -1.29432e-09 0)
(1.03895 5.25942e-08 0)
(1.03895 -6.06066e-08 0)
(1.03895 7.4311e-09 0)
(1.03895 -7.25882e-08 0)
(1.03895 1.49916e-08 0)
(1.03895 4.39485e-09 0)
(1.03895 1.19273e-07 0)
(1.03895 1.51622e-07 0)
(1.03895 3.13579e-07 0)
(1.03895 4.16483e-07 0)
(1.03895 6.66678e-07 0)
(1.03895 8.90357e-07 0)
(1.03895 1.25806e-06 0)
(1.03895 1.65548e-06 0)
(1.03895 2.35747e-06 0)
(1.03895 3.22914e-06 0)
(1.03895 4.55331e-06 0)
(1.03895 6.30497e-06 0)
(1.03895 8.91617e-06 0)
(1.03896 1.25239e-05 0)
(1.03896 1.83934e-05 0)
(1.03896 2.66593e-05 0)
(1.03895 4.50642e-05 0)
(1.03895 7.58589e-05 0)
(1.03893 0.000208513 0)
(1.03892 0.000554616 0)
(1.03898 0.0019667 0)
(1.03921 0.00392522 0)
(0.972294 0.0467292 0)
(1.055 0.0253019 0)
(1.02767 0.00688088 0)
(1.04244 0.000261951 0)
(1.03609 -0.000447254 0)
(1.03886 0.000194299 0)
(1.03777 0.000404749 0)
(1.03841 0.000497822 0)
(1.0383 0.000436308 0)
(1.03849 0.000382348 0)
(1.03853 0.000318136 0)
(1.03862 0.0002687 0)
(1.03867 0.000225539 0)
(1.03872 0.000191221 0)
(1.03875 0.000163072 0)
(1.03879 0.000140117 0)
(1.03881 0.000121092 0)
(1.03884 0.000104931 0)
(1.03886 9.12534e-05 0)
(1.03887 7.92394e-05 0)
(1.03889 6.88361e-05 0)
(1.0389 5.95643e-05 0)
(1.03891 5.14208e-05 0)
(1.03892 4.41416e-05 0)
(1.03893 3.77921e-05 0)
(1.03893 3.20948e-05 0)
(1.03894 2.72118e-05 0)
(1.03894 2.28078e-05 0)
(1.03894 1.91292e-05 0)
(1.03895 1.57875e-05 0)
(1.03895 1.31132e-05 0)
(1.03895 1.07333e-05 0)
(1.03895 8.85503e-06 0)
(1.03895 7.14891e-06 0)
(1.03896 5.88006e-06 0)
(1.03896 4.69979e-06 0)
(1.03896 3.85757e-06 0)
(1.03896 3.01087e-06 0)
(1.03896 2.46826e-06 0)
(1.03896 1.89229e-06 0)
(1.03896 1.58252e-06 0)
(1.03896 1.18146e-06 0)
(1.03896 1.0592e-06 0)
(1.03896 7.78033e-07 0)
(1.03896 6.96696e-07 0)
(1.03896 4.42734e-07 0)
(1.03896 4.48878e-07 0)
(1.03896 2.83832e-07 0)
(1.03896 3.17102e-07 0)
(1.03896 1.60737e-07 0)
(1.03896 1.93716e-07 0)
(1.03896 6.81854e-08 0)
(1.03896 1.15631e-07 0)
(1.03896 -1.57316e-08 0)
(1.03896 6.07951e-08 0)
(1.03896 -2.54295e-08 0)
(1.03896 6.67743e-08 0)
(1.03896 -3.26814e-08 0)
(1.03896 8.42927e-08 0)
(1.03896 1.74363e-08 0)
(1.03896 1.26486e-07 0)
(1.03896 4.10006e-08 0)
(1.03896 1.05064e-07 0)
(1.03896 3.35146e-08 0)
(1.03896 1.27385e-07 0)
(1.03896 3.78375e-08 0)
(1.03896 1.189e-07 0)
(1.03896 4.9802e-08 0)
(1.03896 1.34261e-07 0)
(1.03896 4.39806e-08 0)
(1.03896 9.98592e-08 0)
(1.03896 -2.3124e-09 0)
(1.03896 4.55515e-08 0)
(1.03896 -6.05645e-08 0)
(1.03896 9.06575e-09 0)
(1.03896 -6.51807e-08 0)
(1.03896 1.63893e-08 0)
(1.03896 -2.94773e-09 0)
(1.03896 1.10703e-07 0)
(1.03896 1.4162e-07 0)
(1.03896 3.01942e-07 0)
(1.03896 4.05799e-07 0)
(1.03896 6.46145e-07 0)
(1.03896 8.56096e-07 0)
(1.03896 1.22077e-06 0)
(1.03896 1.60068e-06 0)
(1.03896 2.2818e-06 0)
(1.03896 3.12506e-06 0)
(1.03896 4.4035e-06 0)
(1.03896 6.09593e-06 0)
(1.03896 8.64015e-06 0)
(1.03896 1.21921e-05 0)
(1.03897 1.80937e-05 0)
(1.03897 2.65768e-05 0)
(1.03897 4.56365e-05 0)
(1.03897 7.7213e-05 0)
(1.03897 0.000209108 0)
(1.03901 0.000544216 0)
(1.03912 0.00191349 0)
(1.03982 0.00379827 0)
(0.971212 0.0402948 0)
(1.05353 0.0228182 0)
(1.02735 0.00636235 0)
(1.04219 0.000221441 0)
(1.03579 -0.000418092 0)
(1.03856 0.00016823 0)