/*--------------------------------*- C++ -*----------------------------------*\
| =========                 |                                                 |
| \\      /  F ield         | OpenFOAM: The Open Source CFD Toolbox           |
|  \\    /   O peration     | Version:  5.x                                   |
|   \\  /    A nd           | Web:      www.OpenFOAM.org                      |
|    \\/     M anipulation  |                                                 |
\*---------------------------------------------------------------------------*/
FoamFile
{
    version     2.0;
    format      ascii;
    class       volScalarField;
    location    "1.5";
    object      Uy;
}
// * * * * * * * * * * * * * * * * * * * * * * * * * * * * * * * * * * * * * //

dimensions      [0 1 -1 0 0 0 0];

internalField   nonuniform List<scalar> 
4000
(
0.0563955
0.00359566
-0.00176462
-0.00200121
-0.00213074
-0.00203768
-0.00204468
-0.00203476
-0.00204432
-0.00204823
-0.00205383
-0.00205747
-0.00206086
-0.0020634
-0.00206546
-0.0020671
-0.00206842
-0.00206953
-0.00207043
-0.00207118
-0.00207179
-0.00207234
-0.00207279
-0.00207318
-0.0020735
-0.00207378
-0.002074
-0.0020742
-0.00207437
-0.00207452
-0.00207461
-0.00207472
-0.00207479
-0.00207486
-0.0020749
-0.00207495
-0.00207497
-0.002075
-0.00207501
-0.00207504
-0.00207505
-0.00207506
-0.00207506
-0.00207507
-0.00207507
-0.00207509
-0.00207509
-0.0020751
-0.00207507
-0.00207508
-0.00207509
-0.00207509
-0.00207508
-0.0020751
-0.00207509
-0.00207509
-0.00207509
-0.0020751
-0.00207509
-0.0020751
-0.00207509
-0.00207509
-0.00207508
-0.00207509
-0.00207509
-0.0020751
-0.00207508
-0.00207509
-0.00207509
-0.0020751
-0.00207509
-0.0020751
-0.00207509
-0.00207509
-0.00207508
-0.00207509
-0.00207509
-0.00207509
-0.00207508
-0.00207509
-0.00207508
-0.00207507
-0.00207507
-0.00207505
-0.00207503
-0.00207501
-0.00207497
-0.00207492
-0.00207485
-0.00207476
-0.00207463
-0.0020745
-0.00207435
-0.00207434
-0.00207463
-0.00207528
-0.00207439
-0.00206119
-0.00202118
-0.0021516
0.12845
0.0160015
0.000985914
-7.1023e-05
-0.000505102
-0.000190233
-0.000201617
-0.000163631
-0.000193156
-0.000205716
-0.000224892
-0.000237666
-0.000249701
-0.00025898
-0.000266242
-0.000272112
-0.000276912
-0.000280978
-0.000284403
-0.000287342
-0.000289819
-0.000292003
-0.000293843
-0.000295483
-0.000296851
-0.000298037
-0.000299015
-0.000299876
-0.000300612
-0.000301249
-0.00030171
-0.000302161
-0.000302481
-0.000302781
-0.000302966
-0.000303163
-0.000303284
-0.00030341
-0.000303478
-0.000303581
-0.000303629
-0.000303696
-0.000303704
-0.000303752
-0.000303744
-0.000303803
-0.000303804
-0.000303841
-0.000303777
-0.000303809
-0.000303813
-0.000303838
-0.000303814
-0.000303852
-0.000303818
-0.000303843
-0.000303827
-0.000303864
-0.000303826
-0.000303853
-0.000303827
-0.000303832
-0.000303811
-0.000303843
-0.000303839
-0.000303846
-0.000303809
-0.000303841
-0.000303833
-0.000303856
-0.00030383
-0.000303859
-0.000303846
-0.00030385
-0.000303814
-0.000303841
-0.000303829
-0.000303852
-0.000303812
-0.000303819
-0.000303783
-0.000303781
-0.000303747
-0.000303702
-0.000303624
-0.000303538
-0.000303401
-0.000303237
-0.000302974
-0.000302644
-0.000302166
-0.000301637
-0.000300997
-0.000300649
-0.000300873
-0.000301449
-0.000293347
-0.00023958
-7.34427e-05
-0.00021918
0.135898
0.0244286
0.00334247
0.000824447
0.000103084
0.000608148
0.000613797
0.000677937
0.000630242
0.000606804
0.000573004
0.000549757
0.000528312
0.000511668
0.000498364
0.000487601
0.000478704
0.000471242
0.000464938
0.000459472
0.000454842
0.000450722
0.000447276
0.000444221
0.000441601
0.000439334
0.000437441
0.000435776
0.00043438
0.00043314
0.000432215
0.000431354
0.000430711
0.00043012
0.00042973
0.000429355
0.000429089
0.000428829
0.000428679
0.000428487
0.000428402
0.000428275
0.000428241
0.000428129
0.000428148
0.000428065
0.000428067
0.00042799
0.000428048
0.000428003
0.000428009
0.000427964
0.000428014
0.000427946
0.000427993
0.00042795
0.000427987
0.000427933
0.000427982
0.000427946
0.000427986
0.000427968
0.000428003
0.000427955
0.000427979
0.000427957
0.000428011
0.000427953
0.000427968
0.000427925
0.00042797
0.000427943
0.000427963
0.000427932
0.000427983
0.000427944
0.000427987
0.000427947
0.000427999
0.000428001
0.000428066
0.00042809
0.000428158
0.000428236
0.000428389
0.000428552
0.000428808
0.000429119
0.000429625
0.00043027
0.000431192
0.000432263
0.000433587
0.000434574
0.000435215
0.000436342
0.00045877
0.000569032
0.000943087
0.00117802
0.123283
0.028655
0.00469072
0.000700239
-0.000185454
0.000442434
0.000480596
0.000563239
0.000502234
0.000467825
0.000420927
0.00038753
0.000356993
0.000332989
0.00031374
0.00029863
0.000286102
0.000275596
0.000266728
0.000258987
0.000252435
0.000246607
0.000241669
0.000237293
0.000233502
0.00023021
0.000227452
0.000225011
0.000222971
0.000221164
0.000219786
0.00021853
0.000217578
0.000216717
0.000216113
0.000215553
0.000215159
0.000214773
0.000214518
0.000214234
0.000214112
0.000213936
0.000213892
0.000213725
0.000213727
0.000213609
0.000213607
0.000213507
0.000213554
0.000213492
0.000213505
0.000213439
0.000213511
0.000213432
0.000213492
0.000213424
0.000213467
0.000213408
0.000213476
0.000213433
0.000213475
0.000213438
0.000213501
0.000213454
0.000213483
0.000213432
0.000213501
0.000213443
0.000213477
0.000213403
0.000213439
0.000213422
0.000213463
0.000213412
0.000213461
0.000213403
0.000213475
0.00021344
0.000213503
0.000213511
0.000213593
0.000213642
0.00021376
0.000213871
0.000214086
0.000214316
0.000214683
0.000215141
0.000215884
0.000216835
0.000218174
0.000219788
0.000221865
0.000223732
0.000226118
0.000230489
0.000271493
0.000444044
0.00104962
0.00176927
0.109957
0.0309627
0.00569653
0.000546939
-0.000407836
0.000296742
0.000368947
0.000463046
0.00039322
0.000349751
0.000292855
0.000251606
0.000214289
0.000184892
0.000161168
0.000142459
0.00012695
0.00011388
0.000102833
9.31558e-05
8.49328e-05
7.75979e-05
7.12697e-05
6.56339e-05
6.0714e-05
5.63451e-05
5.26164e-05
4.93571e-05
4.67606e-05
4.44457e-05
4.2651e-05
4.10422e-05
3.98276e-05
3.87305e-05
3.79317e-05
3.71903e-05
3.66563e-05
3.6155e-05
3.58303e-05
3.54653e-05
3.52988e-05
3.50784e-05
3.50238e-05
3.48077e-05
3.47869e-05
3.46349e-05
3.46221e-05
3.44939e-05
3.45302e-05
3.44608e-05
3.44899e-05
3.44058e-05
3.44895e-05
3.44031e-05
3.44733e-05
3.43852e-05
3.44284e-05
3.4356e-05
3.4441e-05
3.44044e-05
3.44522e-05
3.43845e-05
3.44603e-05
3.44304e-05
3.44824e-05
3.44081e-05
3.44722e-05
3.44067e-05
3.44657e-05
3.43873e-05
3.44115e-05
3.4379e-05
3.44305e-05
3.43698e-05
3.44311e-05
3.4356e-05
3.44365e-05
3.44041e-05
3.44856e-05
3.45061e-05
3.46069e-05
3.46677e-05
3.48227e-05
3.49687e-05
3.52351e-05
3.55219e-05
3.59863e-05
3.65735e-05
3.75139e-05
3.87238e-05
4.04276e-05
4.25302e-05
4.53556e-05
4.82561e-05
5.32582e-05
6.23044e-05
0.000123546
0.000349143
0.00116815
0.00229701
0.0982745
0.032189
0.00652212
0.000501412
-0.000473211
0.000275792
0.000379607
0.000479637
0.00040516
0.000355464
0.000292418
0.000246439
0.000205537
0.000173613
0.000147248
0.000125813
0.000108056
9.30551e-05
8.03824e-05
6.92874e-05
5.98077e-05
5.13594e-05
4.40343e-05
3.75009e-05
3.18213e-05
2.67449e-05
2.23748e-05
1.85577e-05
1.55124e-05
1.27725e-05
1.06246e-05
8.71238e-06
7.25577e-06
5.94196e-06
4.96265e-06
4.05105e-06
3.37774e-06
2.74539e-06
2.34085e-06
1.89389e-06
1.68268e-06
1.41779e-06
1.34711e-06
1.08939e-06
1.04162e-06
8.54664e-07
8.3404e-07
6.86968e-07
7.16868e-07
6.36825e-07
6.83449e-07
5.91003e-07
6.82393e-07
5.83223e-07
6.55533e-07
5.51035e-07
5.98752e-07
5.17625e-07
6.07201e-07
5.72237e-07
6.38553e-07
5.55937e-07
6.34159e-07
6.07839e-07
6.80955e-07
5.99291e-07
6.65851e-07
5.85668e-07
6.49851e-07
5.69689e-07
6.0047e-07
5.54933e-07
6.05649e-07
5.28879e-07
6.02463e-07
5.22664e-07
6.11071e-07
5.77105e-07
6.69838e-07
7.0497e-07
8.25823e-07
8.96279e-07
1.07536e-06
1.24676e-06
1.55988e-06
1.8979e-06
2.47589e-06
3.19656e-06
4.32322e-06
5.76181e-06
7.7835e-06
1.03247e-05
1.38828e-05
1.78943e-05
2.55872e-05
3.93185e-05
0.000119291
0.000383811
0.00139849
0.0028468
0.0876663
0.0325017
0.00711398
0.00047768
-0.000486612
0.00028068
0.000414598
0.000518497
0.000441559
0.000387076
0.000319266
0.000269242
0.000225013
0.000190407
0.000161847
0.00013851
0.000119207
0.000102926
8.9157e-05
7.71324e-05
6.68434e-05
5.7683e-05
4.97697e-05
4.27326e-05
3.66504e-05
3.12643e-05
2.66469e-05
2.25548e-05
1.91655e-05
1.60955e-05
1.36521e-05
1.14923e-05
9.83534e-06
8.33212e-06
7.18852e-06
6.13166e-06
5.34346e-06
4.58016e-06
4.08947e-06
3.5814e-06
3.33847e-06
3.03247e-06
2.94502e-06
2.64921e-06
2.57219e-06
2.35546e-06
2.33484e-06
2.18227e-06
2.21158e-06
2.11808e-06
2.17575e-06
2.07828e-06
2.17133e-06
2.05612e-06
2.12521e-06
2.01006e-06
2.06384e-06
1.98077e-06
2.07232e-06
2.03407e-06
2.11894e-06
2.03251e-06
2.115e-06
2.08511e-06
2.16484e-06
2.07726e-06
2.15168e-06
2.06678e-06
2.12846e-06
2.04133e-06
2.08113e-06
2.03132e-06
2.08463e-06
1.99059e-06
2.06694e-06
1.98527e-06
2.08302e-06
2.05275e-06
2.14892e-06
2.19054e-06
2.32681e-06
2.40919e-06
2.61103e-06
2.79663e-06
3.14285e-06
3.52697e-06
4.18549e-06
5.03538e-06
6.32231e-06
7.95365e-06
1.02454e-05
1.31723e-05
1.74187e-05
2.25422e-05
3.27291e-05
5.06652e-05
0.000147032
0.000446051
0.00162563
0.0033129
0.0779582
0.0320483
0.00745863
0.000442041
-0.000491188
0.00027589
0.000436527
0.000542123
0.000464965
0.000407406
0.000336726
0.000283971
0.000237481
0.000200917
0.000170872
0.000146356
0.000126051
0.000108966
9.44852e-05
8.18172e-05
7.09645e-05
6.12864e-05
5.29224e-05
4.54845e-05
3.90296e-05
3.33116e-05
2.84071e-05
2.40211e-05
2.03716e-05
1.70795e-05
1.44408e-05
1.21095e-05
1.03047e-05
8.67349e-06
7.42583e-06
6.27874e-06
5.43156e-06
4.60259e-06
4.06852e-06
3.52592e-06
3.24589e-06
2.88946e-06
2.78386e-06
2.46263e-06
2.36241e-06
2.1252e-06
2.10896e-06
1.95568e-06
1.98807e-06
1.88088e-06
1.94039e-06
1.83422e-06
1.9192e-06
1.79173e-06
1.86063e-06
1.74583e-06
1.80131e-06
1.71653e-06
1.81494e-06
1.77455e-06
1.87435e-06
1.78421e-06
1.86707e-06
1.83436e-06
1.91475e-06
1.81949e-06
1.89865e-06
1.81587e-06
1.87608e-06
1.78493e-06
1.82998e-06
1.77693e-06
1.83571e-06
1.73082e-06
1.80219e-06
1.71558e-06
1.8171e-06
1.79698e-06
1.89598e-06
1.93862e-06
2.08665e-06
2.17791e-06
2.40278e-06
2.60327e-06
2.96737e-06
3.404e-06
4.10586e-06
5.00425e-06
6.36036e-06
8.09883e-06
1.05739e-05
1.38026e-05
1.86419e-05
2.48047e-05
3.76093e-05
5.98345e-05
0.0001706
0.000495953
0.0017984
0.00365051
0.0691155
0.0309899
0.00758113
0.000397738
-0.000490659
0.000261849
0.000444297
0.00054942
0.000474089
0.000415223
0.000343718
0.000289812
0.000242448
0.000205055
0.000174379
0.000149384
0.000128637
0.000111188
9.63919e-05
8.34046e-05
7.22626e-05
6.23231e-05
5.37043e-05
4.60366e-05
3.93427e-05
3.33895e-05
2.82784e-05
2.37015e-05
1.98909e-05
1.64739e-05
1.37343e-05
1.13053e-05
9.40338e-06
7.69611e-06
6.40372e-06
5.22135e-06
4.35707e-06
3.51648e-06
2.97677e-06
2.41144e-06
2.10138e-06
1.71597e-06
1.59864e-06
1.26752e-06
1.14974e-06
8.94065e-07
8.84797e-07
7.27786e-07
7.62359e-07
6.40234e-07
6.9402e-07
5.77327e-07
6.47379e-07
5.13947e-07
5.85446e-07
4.78884e-07
5.37552e-07
4.48257e-07
5.56176e-07
5.13301e-07
6.21785e-07
5.29587e-07
6.08275e-07
5.69704e-07
6.50111e-07
5.46997e-07
6.26962e-07
5.51119e-07
6.13217e-07
5.22601e-07
5.714e-07
5.12185e-07
5.73275e-07
4.62394e-07
5.27591e-07
4.38265e-07
5.37336e-07
5.28371e-07
6.33315e-07
6.73868e-07
8.29787e-07
9.30794e-07
1.18058e-06
1.39922e-06
1.77418e-06
2.2229e-06
2.94644e-06
3.83056e-06
5.18443e-06
6.95519e-06
9.52765e-06
1.29642e-05
1.82781e-05
2.53427e-05
4.05226e-05
6.65289e-05
0.000188496
0.000530246
0.00191139
0.00385965
0.0610413
0.0294538
0.00751024
0.000351192
-0.000483364
0.000242408
0.000440818
0.000543561
0.000471692
0.000413116
0.000342579
0.000288958
0.000241961
0.000204762
0.000174249
0.000149405
0.00012876
0.000111357
9.66154e-05
8.36501e-05
7.24983e-05
6.25605e-05
5.39013e-05
4.61915e-05
3.94387e-05
3.34141e-05
2.82449e-05
2.36147e-05
1.97499e-05
1.62822e-05
1.35063e-05
1.10375e-05
9.08673e-06
7.33852e-06
6.03003e-06
4.83227e-06
3.95796e-06
3.10399e-06
2.55833e-06
1.98623e-06
1.67428e-06
1.28449e-06
1.16269e-06
8.40307e-07
7.19808e-07
4.57063e-07
4.5587e-07
2.99242e-07
3.34402e-07
1.97253e-07
2.42404e-07
1.16649e-07
1.71603e-07
3.59578e-08
1.12451e-07
1.54561e-08
8.231e-08
-1.2391e-08
1.02139e-07
5.59299e-08
1.67469e-07
7.42199e-08
1.45999e-07
9.69623e-08
1.8073e-07
7.44871e-08
1.53627e-07
8.43533e-08
1.53721e-07
6.50347e-08
1.18502e-07
4.60123e-08
1.05471e-07
-9.42256e-09
5.5898e-08
-3.09667e-08
6.3179e-08
5.76954e-08
1.68657e-07
2.04391e-07
3.65565e-07
4.7112e-07
7.31202e-07
9.58778e-07
1.33258e-06
1.75045e-06
2.46165e-06
3.33945e-06
4.68315e-06
6.45775e-06
9.07543e-06
1.26409e-05
1.83064e-05
2.60876e-05
4.31735e-05
7.2086e-05
0.00020142
0.000549904
0.00196686
0.00394855
0.0536149
0.0275335
0.00726989
0.000305457
-0.000468936
0.000219447
0.000427324
0.000526005
0.000458844
0.00040196
0.000333922
0.000281841
0.000236285
0.000200148
0.000170504
0.000146359
0.000126308
0.00010934
9.49827e-05
8.23566e-05
7.14577e-05
6.17521e-05
5.32551e-05
4.56779e-05
3.90451e-05
3.31104e-05
2.80231e-05
2.34574e-05
1.96402e-05
1.61948e-05
1.34394e-05
1.09878e-05
9.04516e-06
7.29541e-06
5.99241e-06
4.79251e-06
3.92158e-06
3.05836e-06
2.50698e-06
1.92945e-06
1.61354e-06
1.21513e-06
1.09297e-06
7.9213e-07
6.8679e-07
4.28112e-07
4.32371e-07
2.76263e-07
3.09746e-07
1.60461e-07
1.98611e-07
7.01366e-08
1.1694e-07
-1.7997e-08
6.15608e-08
-2.73985e-08
5.20995e-08
-4.70578e-08
7.01704e-08
1.61954e-08
1.27468e-07
3.55354e-08
1.0143e-07
4.01683e-08
1.29004e-07
2.77568e-08
1.0692e-07
4.04822e-08
1.19325e-07
3.08515e-08
8.7583e-08
-1.29432e-09
5.25942e-08
-6.06066e-08
7.4311e-09
-7.25882e-08
1.49916e-08
4.39485e-09
1.19273e-07
1.51622e-07
3.13579e-07
4.16483e-07
6.66678e-07
8.90357e-07
1.25806e-06
1.65548e-06
2.35747e-06
3.22914e-06
4.55331e-06
6.30497e-06
8.91617e-06
1.25239e-05
1.83934e-05
2.66593e-05
4.50642e-05
7.58589e-05
0.000208513
0.000554616
0.0019667
0.00392522
0.0467292
0.0253019
0.00688088
0.000261951
-0.000447254
0.000194299
0.000404749
0.000497822
0.000436308
0.000382348
0.000318136
0.0002687
0.000225539
0.000191221
0.000163072
0.000140117
0.000121092
0.000104931
9.12534e-05
7.92394e-05
6.88361e-05
5.95643e-05
5.14208e-05
4.41416e-05
3.77921e-05
3.20948e-05
2.72118e-05
2.28078e-05
1.91292e-05
1.57875e-05
1.31132e-05
1.07333e-05
8.85503e-06
7.14891e-06
5.88006e-06
4.69979e-06
3.85757e-06
3.01087e-06
2.46826e-06
1.89229e-06
1.58252e-06
1.18146e-06
1.0592e-06
7.78033e-07
6.96696e-07
4.42734e-07
4.48878e-07
2.83832e-07
3.17102e-07
1.60737e-07
1.93716e-07
6.81854e-08
1.15631e-07
-1.57316e-08
6.07951e-08
-2.54295e-08
6.67743e-08
-3.26814e-08
8.42927e-08
1.74363e-08
1.26486e-07
4.10006e-08
1.05064e-07
3.35146e-08
1.27385e-07
3.78375e-08
1.189e-07
4.9802e-08
1.34261e-07
4.39806e-08
9.98592e-08
-2.3124e-09
4.55515e-08
-6.05645e-08
9.06575e-09
-6.51807e-08
1.63893e-08
-2.94773e-09
1.10703e-07
1.4162e-07
3.01942e-07
4.05799e-07
6.46145e-07
8.56096e-07
1.22077e-06
1.60068e-06
2.2818e-06
3.12506e-06
4.4035e-06
6.09593e-06
8.64015e-06
1.21921e-05
1.80937e-05
2.65768e-05
4.56365e-05
7.7213e-05
0.000209108
0.000544216
0.00191349
0.00379827
0.0402948
0.0228182
0.00636235
0.000221441
-0.000418092
0.00016823
0.000374229
0.000460255
0.000405081
0.00035512
0.000295881
0.000250059
0.000210124
0.000178302
0.0001522
0.00013088
0.000113254
9.82424e-05
8.55138e-05
7.43392e-05
6.46523e-05
5.5999e-05
4.83911e-05
4.15716e-05
3.5646e-05
3.03141e-05
2.57419e-05
2.15894e-05
1.81304e-05
1.49762e-05
1.24448e-05
1.01858e-05
8.41967e-06
6.80216e-06
5.60173e-06
4.46895e-06
3.68046e-06
2.87567e-06
2.35789e-06
1.79762e-06
1.50649e-06
1.11714e-06
9.9698e-07
7.30431e-07
6.75781e-07
4.31496e-07
4.40977e-07
2.68144e-07
3.04896e-07
1.48232e-07
1.78253e-07
5.7527e-08
1.10334e-07
-1.61484e-08
5.115e-08
-4.09795e-08
6.05121e-08
-3.33867e-08
8.15775e-08
5.31474e-10
1.07699e-07
3.41778e-08
1.01161e-07
2.26694e-08
1.21144e-07
4.57701e-08
1.29441e-07
5.24867e-08
1.35814e-07
4.2108e-08
9.56452e-08
-1.46915e-08
3.06363e-08
-6.78067e-08
1.85018e-09
-7.22061e-08
3.91189e-09
-2.34527e-08
8.65107e-08
1.15617e-07
2.73729e-07
3.76344e-07
6.07719e-07
7.98756e-07
1.15382e-06
1.51126e-06
2.15448e-06
2.94355e-06
4.1476e-06
5.74354e-06
8.15965e-06
1.15571e-05
1.73085e-05
2.57226e-05
4.47292e-05
7.59533e-05
0.000203107
0.000519177
0.00181096
0.00357725
0.0342353
0.0201308
0.0057321
0.00018421
-0.000381368
0.000142273
0.000336956
0.000414587
0.00036625
0.00032121
0.000267921
0.000226553
0.000190559
0.000161828
0.000138256
0.000118971
0.000103061
8.94955e-05
7.79627e-05
6.78219e-05
5.90473e-05
5.11845e-05
4.42794e-05
3.80709e-05
3.26859e-05
2.78258e-05
2.36589e-05
1.98466e-05
1.66813e-05
1.37915e-05
1.14647e-05
9.37343e-06
7.76006e-06
6.27236e-06
5.17561e-06
4.12027e-06
3.40426e-06
2.66191e-06
2.18221e-06
1.65136e-06
1.38883e-06
1.02689e-06
9.14246e-07
6.58763e-07
6.28492e-07
4.01623e-07
4.19622e-07
2.46987e-07
2.87042e-07
1.37158e-07
1.6515e-07
4.84325e-08
1.05957e-07
-1.51399e-08
4.03625e-08
-6.39649e-08
4.28883e-08
-4.19344e-08
7.39016e-08
-1.79698e-08
8.77023e-08
2.99733e-08
1.03119e-07
1.98652e-08
1.20191e-07
5.77412e-08
1.4335e-07
5.67162e-08
1.33239e-07
3.71317e-08
8.99448e-08
-2.18209e-08
1.9765e-08
-7.22039e-08
-6.58775e-09
-8.44685e-08
-1.50566e-08
-4.72578e-08
6.01581e-08
8.89665e-08
2.41291e-07
3.38355e-07
5.5744e-07
7.28105e-07
1.06494e-06
1.39195e-06
1.98209e-06
2.69558e-06
3.79958e-06
5.26377e-06
7.49356e-06
1.06436e-05
1.60642e-05
2.41169e-05
4.23554e-05
7.21043e-05
0.000190749
0.000480425
0.00166369
0.00327235
0.0284845
0.0172801
0.00500684
0.000150155
-0.000337296
0.000117141
0.000294052
0.000362043
0.000320887
0.000281546
0.000235026
0.000198827
0.000167381
0.000142252
0.000121627
0.000104725
9.07951e-05
7.89203e-05
6.88066e-05
5.98754e-05
5.21809e-05
4.52647e-05
3.92064e-05
3.37414e-05
2.89949e-05
2.46942e-05
2.10179e-05
1.76308e-05
1.48286e-05
1.22691e-05
1.02073e-05
8.33098e-06
6.90606e-06
5.5829e-06
4.62114e-06
3.67279e-06
3.04385e-06
2.37753e-06
1.94821e-06
1.46058e-06
1.23504e-06
9.12658e-07
8.15523e-07
5.70766e-07
5.61157e-07
3.5799e-07
3.88612e-07
2.24646e-07
2.67094e-07
1.27612e-07
1.5469e-07
4.01742e-08
9.87122e-08
-1.73906e-08
2.90967e-08
-8.84805e-08
2.00825e-08
-5.41469e-08
6.61294e-08
-3.03202e-08
7.32922e-08
3.06982e-08
1.11424e-07
2.44649e-08
1.22129e-07
6.91056e-08
1.56347e-07
6.37981e-08
1.32102e-07
3.59241e-08
8.92241e-08
-1.88147e-08
1.47742e-08
-7.67217e-08
-1.72852e-08
-1.00688e-07
-3.78025e-08
-7.13457e-08
3.38953e-08
6.31844e-08
2.08793e-07
2.96708e-07
4.99365e-07
6.49729e-07
9.60206e-07
1.24633e-06
1.77072e-06
2.3917e-06
3.37258e-06
4.67266e-06
6.66223e-06
9.48022e-06
1.43999e-05
2.1804e-05
3.8585e-05
6.57933e-05
0.000172476
0.000429191
0.00147678
0.00289418
0.0229834
0.0143001
0.00420241
0.00011893
-0.000286406
9.32383e-05
0.000246558
0.000303779
0.000270038
0.000237035
0.00019796
0.000167521
0.000141135
0.000120031
0.000102703
8.84724e-05
7.67483e-05
6.67595e-05
5.82578e-05
5.06992e-05
4.42237e-05
3.83878e-05
3.32941e-05
2.86798e-05
2.46578e-05
2.09908e-05
1.78809e-05
1.49961e-05
1.26219e-05
1.04461e-05
8.70558e-06
7.09036e-06
5.88517e-06
4.75388e-06
3.95204e-06
3.13625e-06
2.60783e-06
2.02677e-06
1.66145e-06
1.23051e-06
1.04974e-06
7.72826e-07
7.01026e-07
4.70975e-07
4.80161e-07
3.03749e-07
3.48397e-07
1.97595e-07
2.4158e-07
1.14153e-07
1.43163e-07
2.93409e-08
8.4909e-08
-2.72052e-08
1.65383e-08
-1.09273e-07
-1.71688e-09
-6.80123e-08
5.80613e-08
-3.65447e-08
6.34293e-08
3.06042e-08
1.19118e-07
2.99365e-08
1.21442e-07
7.3594e-08
1.63351e-07
7.30115e-08
1.35934e-07
4.00688e-08
9.23599e-08
-9.75956e-09
1.22652e-08
-8.64204e-08
-3.41984e-08
-1.20387e-07
-6.27499e-08
-9.61843e-08
8.33326e-09
3.90218e-08
1.77668e-07
2.52821e-07
4.34352e-07
5.62093e-07
8.40041e-07
1.07394e-06
1.52182e-06
2.03751e-06
2.87444e-06
3.98198e-06
5.68344e-06
8.09437e-06
1.23599e-05
1.8845e-05
3.35333e-05
5.7233e-05
0.000148899
0.000366956
0.00125576
0.00245364
0.0176794
0.0112199
0.003334
9.00689e-05
-0.000229513
7.07112e-05
0.000195439
0.000240906
0.000214729
0.000188579
0.000157488
0.00013328
0.000112375
9.56282e-05
8.18851e-05
7.05573e-05
6.12274e-05
5.32794e-05
4.6544e-05
4.05034e-05
3.536e-05
3.07101e-05
2.66729e-05
2.29916e-05
1.97692e-05
1.68026e-05
1.43254e-05
1.20084e-05
1.01205e-05
8.36963e-06
6.9967e-06
5.68418e-06
4.72622e-06
3.80793e-06
3.18409e-06
2.51953e-06
2.10501e-06
1.61788e-06
1.33161e-06
9.69439e-07
8.40215e-07
6.08392e-07
5.71216e-07
3.63167e-07
3.92269e-07
2.42288e-07
2.99029e-07
1.62423e-07
2.09189e-07
9.50392e-08
1.30327e-07
1.69123e-08
6.68039e-08
-4.23812e-08
5.64887e-09
-1.21509e-07
-1.72289e-08
-8.03336e-08
4.92754e-08
-3.82939e-08
5.61726e-08
2.53431e-08
1.2174e-07
3.35331e-08
1.19008e-07
7.17499e-08
1.65138e-07
8.43888e-08
1.46676e-07
4.96723e-08
9.6194e-08
-9.50654e-10
9.75947e-09
-1.01619e-07
-5.63359e-08
-1.40023e-07
-8.45535e-08
-1.18554e-07
-1.50774e-08
1.6822e-08
1.4772e-07
2.06759e-07
3.63102e-07
4.6292e-07
7.04041e-07
8.76199e-07
1.23847e-06
1.64027e-06
2.31535e-06
3.20634e-06
4.57953e-06
6.5193e-06
9.99807e-06
1.5322e-05
2.73616e-05
4.67154e-05
0.000120779
0.000295419
0.00100645
0.00196181
0.0125244
0.00806528
0.00241629
6.30519e-05
-0.000167673
4.9487e-05
0.000141588
0.000174496
0.000155972
0.000137066
0.000114375
9.67552e-05
8.16519e-05
6.9519e-05
5.95843e-05
5.13345e-05
4.4551e-05
3.87658e-05
3.39104e-05
2.95028e-05
2.57828e-05
2.23973e-05
1.94827e-05
1.67963e-05
1.4437e-05
1.22315e-05
1.04432e-05
8.74532e-06
7.39106e-06
6.09465e-06
5.12198e-06
4.14615e-06
3.45961e-06
2.77112e-06
2.33649e-06
1.83403e-06
1.54586e-06
1.16333e-06
9.7047e-07
6.86345e-07
6.13874e-07
4.23501e-07
4.27671e-07
2.49923e-07
3.0155e-07
1.76529e-07
2.41583e-07
1.19277e-07
1.72075e-07
7.2523e-08
1.18349e-07
6.65553e-09
5.04384e-08
-5.78892e-08
-9.27871e-10
-1.23792e-07
-2.5226e-08
-8.9707e-08
3.86608e-08
-3.87223e-08
5.02031e-08
1.43566e-08
1.19327e-07
3.69265e-08
1.20111e-07
6.93174e-08
1.65243e-07
9.75511e-08
1.62372e-07
6.23906e-08
9.7411e-08
1.71069e-09
6.03078e-09
-1.18577e-07
-7.90885e-08
-1.55975e-07
-9.91589e-08
-1.35696e-07
-3.69669e-08
-5.11417e-09
1.16625e-07
1.57194e-07
2.86025e-07
3.51398e-07
5.52206e-07
6.5726e-07
9.26942e-07
1.20963e-06
1.70911e-06
2.36358e-06
3.37679e-06
4.79366e-06
7.37593e-06
1.1336e-05
2.02722e-05
3.46001e-05
8.90015e-05
0.000216457
0.000734923
0.00142996
0.00747353
0.00485921
0.00146362
3.73469e-05
-0.000102142
2.93207e-05
8.58343e-05
0.000105594
9.47598e-05
8.33761e-05
6.93781e-05
5.85999e-05
4.95227e-05
4.21841e-05
3.62167e-05
3.11718e-05
2.70464e-05
2.35151e-05
2.06157e-05
1.79164e-05
1.56902e-05
1.36239e-05
1.18737e-05
1.02265e-05
8.78176e-06
7.38943e-06
6.33307e-06
5.28987e-06
4.50135e-06
3.67965e-06
3.126e-06
2.51121e-06
2.1156e-06
1.67022e-06
1.4305e-06
1.09468e-06
9.42819e-07
6.77202e-07
5.88377e-07
3.87828e-07
3.7582e-07
2.24461e-07
2.73364e-07
1.32404e-07
2.08144e-07
1.07979e-07
1.7847e-07
7.14644e-08
1.34069e-07
4.98019e-08
1.08921e-07
9.86744e-10
4.04031e-08
-7.0428e-08
-4.43374e-09
-1.19639e-07
-2.94225e-08
-9.80888e-08
2.48605e-08
-4.10469e-08
4.51089e-08
8.87124e-10
1.14979e-07
4.34281e-08
1.29079e-07
7.23779e-08
1.66597e-07
1.10241e-07
1.77404e-07
7.38701e-08
9.41431e-08
-4.33964e-09
6.58605e-10
-1.32319e-07
-9.76304e-08
-1.67238e-07
-1.07573e-07
-1.47957e-07
-5.9869e-08
-3.02756e-08
8.10351e-08
1.02236e-07
2.03032e-07
2.28782e-07
3.8548e-07
4.22974e-07
5.96189e-07
7.56122e-07
1.0712e-06
1.47295e-06
2.10258e-06
2.95875e-06
4.56043e-06
7.00298e-06
1.25012e-05
2.13006e-05
5.45466e-05
0.000132091
0.000447411
0.000869469
0.00248427
0.00162297
0.000490062
1.24226e-05
-3.43332e-05
9.8424e-06
2.89549e-05
3.52132e-05
3.20761e-05
2.83768e-05
2.32517e-05
1.94693e-05
1.65445e-05
1.41105e-05
1.22021e-05
1.04453e-05
9.04702e-06
7.82593e-06
6.92715e-06
5.96966e-06
5.28292e-06
4.57192e-06
4.00765e-06
3.42705e-06
2.93396e-06
2.39279e-06
2.09375e-06
1.7233e-06
1.51722e-06
1.18339e-06
1.05573e-06
8.15173e-07
7.2281e-07
5.30049e-07
4.884e-07
3.20509e-07
3.11e-07
1.73014e-07
1.92938e-07
7.77265e-08
1.2894e-07
1.83094e-08
1.12753e-07
1.13996e-08
1.10121e-07
3.71156e-08
1.13519e-07
2.40631e-08
9.86746e-08
2.85191e-08
1.01583e-07
-1.22368e-09
3.65721e-08
-8.03728e-08
-9.47625e-09
-1.15382e-07
-3.54778e-08
-1.09012e-07
7.2029e-09
-4.68072e-08
4.14985e-08
-9.72417e-09
1.12327e-07
5.45045e-08
1.45567e-07
8.28882e-08
1.69548e-07
1.18971e-07
1.85454e-07
7.99727e-08
8.70432e-08
-1.68647e-08
-5.6838e-09
-1.3947e-07
-1.09077e-07
-1.75259e-07
-1.14676e-07
-1.58139e-07
-8.58658e-08
-6.188e-08
3.82936e-08
4.08121e-08
1.14358e-07
9.85483e-08
2.06897e-07
1.7977e-07
2.56624e-07
2.90006e-07
4.16326e-07
5.53736e-07
7.83825e-07
1.05691e-06
1.62322e-06
2.45138e-06
4.30986e-06
7.2713e-06
1.8459e-05
4.44464e-05
0.000150263
0.000291763
-0.00248459
-0.00162321
-0.000490437
-1.2246e-05
3.42466e-05
-9.39432e-06
-2.83038e-05
-3.5653e-05
-3.11023e-05
-2.70671e-05
-2.32532e-05
-1.99834e-05
-1.67217e-05
-1.42103e-05
-1.20361e-05
-1.04649e-05
-9.1095e-06
-8.00393e-06
-6.88682e-06
-6.10277e-06
-5.23428e-06
-4.57217e-06
-3.94415e-06
-3.44949e-06
-2.97141e-06
-2.64325e-06
-2.18032e-06
-1.87801e-06
-1.49851e-06
-1.33691e-06
-1.04073e-06
-9.05596e-07
-6.91055e-07
-6.26451e-07
-4.66405e-07
-4.65795e-07
-3.31765e-07
-3.37016e-07
-2.10032e-07
-2.41068e-07
-1.24345e-07
-1.88614e-07
-4.8917e-08
-1.11101e-07
6.61076e-09
-3.50413e-08
5.12216e-08
-1.81817e-08
6.7942e-08
7.98265e-09
9.34825e-08
-4.11513e-09
3.41753e-08
-9.06589e-08
-2.08666e-08
-1.16349e-07
-4.67161e-08
-1.2421e-07
-1.3135e-08
-5.47622e-08
4.07341e-08
-1.2825e-08
1.13688e-07
6.82825e-08
1.6452e-07
9.80124e-08
1.72292e-07
1.20957e-07
1.82923e-07
7.91024e-08
7.90262e-08
-3.01024e-08
-1.11642e-08
-1.39536e-07
-1.1334e-07
-1.81914e-07
-1.25712e-07
-1.69842e-07
-1.14797e-07
-1.0068e-07
-1.20201e-08
-2.60315e-08
2.18043e-08
-3.39474e-08
2.23327e-08
-6.592e-08
-8.18666e-08
-1.78875e-07
-2.42906e-07
-3.75151e-07
-5.52306e-07
-8.68844e-07
-1.35926e-06
-2.1806e-06
-4.02474e-06
-7.00672e-06
-1.81788e-05
-4.42936e-05
-0.000150107
-0.000291682
-0.00747382
-0.00485944
-0.00146399
-3.71781e-05
0.000102055
-2.88646e-05
-8.52016e-05
-0.000106024
-9.3799e-05
-8.20901e-05
-6.9385e-05
-5.91079e-05
-4.97111e-05
-4.22845e-05
-3.6069e-05
-3.11801e-05
-2.70856e-05
-2.36783e-05
-2.0562e-05
-1.80595e-05
-1.5652e-05
-1.36211e-05
-1.18072e-05
-1.02481e-05
-8.80141e-06
-7.60933e-06
-6.39957e-06
-5.44143e-06
-4.48469e-06
-3.82583e-06
-3.11475e-06
-2.61293e-06
-2.09641e-06
-1.77553e-06
-1.40956e-06
-1.24e-06
-9.66425e-07
-8.41904e-07
-6.14408e-07
-5.641e-07
-3.79952e-07
-3.91061e-07
-2.06694e-07
-2.30979e-07
-9.94021e-08
-1.06483e-07
-4.44952e-09
-5.28213e-08
4.17743e-08
-1.40788e-08
8.05145e-08
-1.26875e-08
2.75068e-08
-1.03968e-07
-3.99785e-08
-1.23764e-07
-6.18715e-08
-1.41592e-07
-3.30967e-08
-6.19526e-08
4.41455e-08
-6.72446e-09
1.19385e-07
8.10384e-08
1.79299e-07
1.12568e-07
1.72828e-07
1.15773e-07
1.70606e-07
7.29308e-08
7.38628e-08
-3.80037e-08
-1.35944e-08
-1.34353e-07
-1.1282e-07
-1.8823e-07
-1.42967e-07
-1.85606e-07
-1.44172e-07
-1.43698e-07
-6.75614e-08
-9.50625e-08
-7.07251e-08
-1.62698e-07
-1.60327e-07
-3.0767e-07
-4.11803e-07
-6.40776e-07
-8.95279e-07
-1.29527e-06
-1.877e-06
-2.77486e-06
-4.30681e-06
-6.74879e-06
-1.22209e-05
-2.10421e-05
-5.42729e-05
-0.000131927
-0.000447261
-0.000869382
-0.0125247
-0.00806549
-0.00241665
-6.28938e-05
0.000167583
-4.90222e-05
-0.000140983
-0.000174914
-0.000155034
-0.000135823
-0.000114389
-9.72549e-05
-8.18558e-05
-6.96188e-05
-5.94639e-05
-5.13273e-05
-4.45503e-05
-3.89029e-05
-3.38402e-05
-2.96587e-05
-2.57584e-05
-2.239e-05
-1.94127e-05
-1.6819e-05
-1.44301e-05
-1.24033e-05
-1.04776e-05
-8.89412e-06
-7.37904e-06
-6.22878e-06
-5.11712e-06
-4.26535e-06
-3.45921e-06
-2.89031e-06
-2.31689e-06
-1.97958e-06
-1.57495e-06
-1.33116e-06
-1.01158e-06
-8.83287e-07
-6.30785e-07
-5.84273e-07
-3.56869e-07
-3.43131e-07
-2.01502e-07
-1.74721e-07
-5.20293e-08
-8.0964e-08
1.77259e-08
-4.00728e-08
5.9173e-08
-2.9629e-08
1.33588e-08
-1.20349e-07
-6.37564e-08
-1.34734e-07
-7.63292e-08
-1.56365e-07
-4.90607e-08
-6.63163e-08
5.16456e-08
6.52083e-09
1.27818e-07
8.96762e-08
1.85257e-07
1.22229e-07
1.70536e-07
1.05659e-07
1.53047e-07
6.52755e-08
7.44886e-08
-3.72612e-08
-1.191e-08
-1.26868e-07
-1.11347e-07
-1.94423e-07
-1.64542e-07
-2.05398e-07
-1.70526e-07
-1.85002e-07
-1.2375e-07
-1.62393e-07
-1.58254e-07
-2.82618e-07
-3.33582e-07
-5.39042e-07
-7.28689e-07
-1.08635e-06
-1.52894e-06
-2.18884e-06
-3.15958e-06
-4.61661e-06
-7.13859e-06
-1.11084e-05
-2.00029e-05
-3.4352e-05
-8.87419e-05
-0.000216277
-0.00073478
-0.00142987
-0.0176796
-0.0112201
-0.00333435
-8.99215e-05
0.00022942
-7.02475e-05
-0.000194861
-0.000241317
-0.000213821
-0.00018739
-0.000157506
-0.000133773
-0.000112588
-9.57241e-05
-8.17893e-05
-7.05407e-05
-6.11826e-05
-5.3387e-05
-4.64666e-05
-4.06651e-05
-3.53437e-05
-3.0699e-05
-2.66025e-05
-2.30226e-05
-1.97402e-05
-1.69286e-05
-1.43286e-05
-1.21593e-05
-1.01156e-05
-8.49075e-06
-6.99847e-06
-5.81895e-06
-4.74148e-06
-3.94117e-06
-3.16639e-06
-2.66643e-06
-2.14167e-06
-1.79337e-06
-1.38925e-06
-1.18628e-06
-8.66868e-07
-7.63201e-07
-4.97089e-07
-4.43506e-07
-2.92387e-07
-2.37781e-07
-9.4047e-08
-1.07058e-07
-7.84504e-09
-7.05044e-08
2.90033e-08
-5.42779e-08
-6.82585e-09
-1.36981e-07
-8.65755e-08
-1.45074e-07
-8.55378e-08
-1.64213e-07
-5.86965e-08
-6.85446e-08
6.04793e-08
2.19721e-08
1.35968e-07
9.29582e-08
1.81633e-07
1.25255e-07
1.66442e-07
9.45197e-08
1.36451e-07
6.01065e-08
8.17883e-08
-2.85346e-08
-7.41095e-09
-1.20191e-07
-1.126e-07
-2.00677e-07
-1.85679e-07
-2.2633e-07
-1.91337e-07
-2.18565e-07
-1.75175e-07
-2.25401e-07
-2.37019e-07
-3.90508e-07
-4.92735e-07
-7.54223e-07
-1.02964e-06
-1.50775e-06
-2.13012e-06
-3.03852e-06
-4.36945e-06
-6.34902e-06
-9.77711e-06
-1.51215e-05
-2.71094e-05
-4.64805e-05
-0.00012054
-0.000295232
-0.00100631
-0.0019617
-0.0229836
-0.0143002
-0.00420275
-0.000118796
0.000286309
-9.27922e-05
-0.000246002
-0.000304193
-0.000269163
-0.000235908
-0.000197975
-0.000168008
-0.000141347
-0.00012012