/*--------------------------------*- C++ -*----------------------------------*\
| =========                 |                                                 |
| \\      /  F ield         | OpenFOAM: The Open Source CFD Toolbox           |
|  \\    /   O peration     | Version:  5.x                                   |
|   \\  /    A nd           | Web:      www.OpenFOAM.org                      |
|    \\/     M anipulation  |                                                 |
\*---------------------------------------------------------------------------*/
FoamFile
{
    version     2.0;
    format      ascii;
    class       volScalarField;
    location    "2";
    object      p;
}
// * * * * * * * * * * * * * * * * * * * * * * * * * * * * * * * * * * * * * //

dimensions      [0 2 -2 0 0 0 0];

internalField   nonuniform List<scalar> 
4000
(
427.114
413.878
409.822
404.546
399.86
395.071
390.466
385.918
381.46
377.056
372.702
368.385
364.1
359.84
355.601
351.377
347.167
342.967
338.776
334.592
330.414
326.239
322.069
317.901
313.736
309.573
305.411
301.25
297.09
292.932
288.773
284.615
280.458
276.301
272.144
267.987
263.831
259.674
255.518
251.362
247.206
243.05
238.894
234.738
230.582
226.426
222.27
218.114
213.958
209.802
205.647
201.491
197.335
193.179
189.023
184.867
180.711
176.556
172.4
168.244
164.088
159.932
155.776
151.621
147.465
143.309
139.153
134.997
130.841
126.686
122.53
118.374
114.218
110.062
105.907
101.751
97.5949
93.4391
89.2833
85.1274
80.9716
76.8158
72.6601
68.5043
64.3486
60.193
56.0375
51.8822
47.7271
43.5724
39.4183
35.265
31.113
26.9628
22.8152
18.6708
14.5309
10.3928
6.27115
2.14861
424.668
413.788
409.672
404.358
399.671
394.879
390.274
385.726
381.267
376.862
372.508
368.191
363.906
359.646
355.406
351.182
346.972
342.772
338.581
334.397
330.218
326.044
321.874
317.706
313.541
309.377
305.216
301.055
296.895
292.736
288.578
284.42
280.263
276.106
271.949
267.792
263.636
259.479
255.323
251.167
247.011
242.855
238.699
234.543
230.387
226.231
222.075
217.919
213.763
209.607
205.451
201.295
197.14
192.984
188.828
184.672
180.516
176.36
172.204
168.049
163.893
159.737
155.581
151.425
147.269
143.114
138.958
134.802
130.646
126.49
122.335
118.179
114.023
109.867
105.711
101.555
97.3996
93.2438
89.088
84.9322
80.7763
76.6205
72.4648
68.309
64.1533
59.9977
55.8422
51.6869
47.5318
43.3771
39.223
35.0697
30.9177
26.7674
22.6198
18.4755
14.3357
10.1981
6.07778
1.96699
423.385
413.785
409.625
404.279
399.592
394.796
390.191
385.642
381.183
376.777
372.423
368.106
363.82
359.56
355.32
351.096
346.886
342.686
338.495
334.31
330.132
325.957
321.787
317.619
313.454
309.291
305.129
300.968
296.808
292.649
288.491
284.333
280.176
276.019
271.862
267.705
263.549
259.392
255.236
251.08
246.924
242.768
238.612
234.456
230.3
226.144
221.988
217.832
213.676
209.52
205.364
201.209
197.053
192.897
188.741
184.585
180.429
176.273
172.118
167.962
163.806
159.65
155.494
151.338
147.182
143.027
138.871
134.715
130.559
126.403
122.248
118.092
113.936
109.78
105.624
101.469
97.3127
93.1569
89.001
84.8452
80.6894
76.5336
72.3778
68.2221
64.0664
59.9108
55.7553
51.6
47.4449
43.2902
39.1361
34.9828
30.8307
26.6805
22.5328
18.3885
14.2488
10.1113
5.99165
1.88587
422.867
413.877
409.661
404.296
399.609
394.808
390.204
385.654
381.194
376.788
372.433
368.116
363.83
359.569
355.329
351.105
346.894
342.695
338.503
334.319
330.14
325.966
321.795
317.628
313.462
309.299
305.137
300.976
296.817
292.658
288.499
284.342
280.184
276.027
271.87
267.714
263.557
259.401
255.244
251.088
246.932
242.776
238.62
234.464
230.308
226.152
221.996
217.84
213.685
209.529
205.373
201.217
197.061
192.905
188.749
184.594
180.438
176.282
172.126
167.97
163.814
159.658
155.503
151.347
147.191
143.035
138.879
134.723
130.568
126.412
122.256
118.1
113.944
109.789
105.633
101.477
97.3211
93.1653
89.0095
84.8536
80.6978
76.542
72.3862
68.2305
64.0748
59.9192
55.7637
51.6084
47.4533
43.2986
39.1444
34.9911
30.8391
26.6888
22.5412
18.3968
14.2573
10.1201
5.99925
1.89067
422.528
413.987
409.726
404.343
399.652
394.847
390.243
385.692
381.232
376.826
372.471
368.153
363.867
359.606
355.366
351.142
346.931
342.731
338.54
334.356
330.177
326.003
321.832
317.664
313.499
309.335
305.174
301.013
296.853
292.694
288.536
284.378
280.221
276.063
271.907
267.75
263.593
259.437
255.281
251.125
246.969
242.813
238.657
234.501
230.345
226.189
222.033
217.877
213.721
209.565
205.409
201.253
197.097
192.942
188.786
184.63
180.474
176.318
172.162
168.007
163.851
159.695
155.539
151.383
147.227
143.071
138.916
134.76
130.604
126.448
122.292
118.137
113.981
109.825
105.669
101.513
97.3575
93.2017
89.0459
84.89
80.7342
76.5784
72.4226
68.2669
64.1112
59.9556
55.8001
51.6448
47.4897
43.335
39.1808
35.0275
30.8754
26.7251
22.5775
18.4332
14.2938
10.1564
6.03462
1.9217
422.223
414.082
409.792
404.392
399.697
394.888
390.284
385.732
381.273
376.866
372.51
368.192
363.906
359.645
355.405
351.181
346.97
342.77
338.578
334.394
330.215
326.041
321.87
317.703
313.537
309.374
305.212
301.051
296.892
292.733
288.574
284.416
280.259
276.102
271.945
267.788
263.632
259.475
255.319
251.163
247.007
242.851
238.695
234.539
230.383
226.227
222.071
217.915
213.759
209.603
205.448
201.292
197.136
192.98
188.824
184.668
180.512
176.357
172.201
168.045
163.889
159.733
155.577
151.422
147.266
143.11
138.954
134.798
130.642
126.487
122.331
118.175
114.019
109.863
105.708
101.552
97.3959
93.2401
89.0842
84.9284
80.7726
76.6168
72.461
68.3053
64.1496
59.994
55.8385
51.6831
47.528
43.3733
39.2192
35.0658
30.9137
26.7635
22.6158
18.4715
14.3321
10.1951
6.07233
1.95497
421.952
414.16
409.856
404.44
399.74
394.927
390.323
385.771
381.311
376.904
372.548
368.23
363.944
359.682
355.442
351.218
347.007
342.807
338.615
334.431
330.252
326.078
321.907
317.739
313.574
309.411
305.249
301.088
296.928
292.769
288.611
284.453
280.296
276.138
271.982
267.825
263.668
259.512
255.356
251.2
247.044
242.888
238.732
234.576
230.42
226.264
222.108
217.952
213.796
209.64
205.484
201.328
197.172
193.017
188.861
184.705
180.549
176.393
172.237
168.082
163.926
159.77
155.614
151.458
147.302
143.147
138.991
134.835
130.679
126.523
122.367
118.212
114.056
109.9
105.744
101.588
97.4325
93.2767
89.1209
84.9651
80.8093
76.6535
72.4977
68.3419
64.1862
60.0306
55.8751
51.7198
47.5647
43.41
39.2558
35.1025
30.9504
26.8001
22.6524
18.5082
14.3688
10.2324
6.10818
1.98638
421.716
414.223
409.915
404.486
399.78
394.963
390.36
385.807
381.347
376.939
372.584
368.265
363.979
359.718
355.477
351.253
347.042
342.842
338.65
334.466
330.287
326.113
321.942
317.774
313.609
309.445
305.283
301.123
296.963
292.804
288.646
284.488
280.33
276.173
272.016
267.86
263.703
259.547
255.391
251.234
247.078
242.922
238.766
234.61
230.454
226.298
222.142
217.987
213.831
209.675
205.519
201.363
197.207
193.051
188.895
184.74
180.584
176.428
172.272
168.116
163.96
159.805
155.649
151.493
147.337
143.181
139.025
134.87
130.714
126.558
122.402
118.246
114.09
109.935
105.779
101.623
97.4672
93.3114
89.1556
84.9997
80.8439
76.6881
72.5323
68.3766
64.2209
60.0653
55.9098
51.7545
47.5994
43.4446
39.2905
35.1371
30.985
26.8347
22.687
18.5429
14.4036
10.2678
6.14194
2.01579
421.511
414.275
409.97
404.529
399.817
394.997
390.394
385.84
381.38
376.973
372.617
368.298
364.012
359.75
355.509
351.285
347.074
342.874
338.683
334.498
330.319
326.145
321.974
317.806
313.641
309.478
305.316
301.155
296.995
292.836
288.678
284.52
280.363
276.205
272.049
267.892
263.735
259.579
255.423
251.267
247.111
242.955
238.799
234.643
230.487
226.331
222.175
218.019
213.863
209.707
205.551
201.395
197.239
193.084
188.928
184.772
180.616
176.46
172.304
168.149
163.993
159.837
155.681
151.525
147.369
143.214
139.058
134.902
130.746
126.59
122.434
118.279
114.123
109.967
105.811
101.655
97.4995
93.3437
89.1879
85.032
80.8762
76.7204
72.5646
68.4089
64.2532
60.0976
55.9421
51.7867
47.6317
43.4769
39.3228
35.1694
31.0173
26.867
22.7193
18.5752
14.4359
10.3008
6.1734
2.04303
421.331
414.316
410.02
404.57
399.85
395.027
390.424
385.871
381.411
377.003
372.647
368.328
364.042
359.78
355.539
351.315
347.104
342.904
338.712
334.528
330.349
326.175
322.004
317.836
313.671
309.507
305.345
301.185
297.025
292.866
288.708
284.55
280.392
276.235
272.078
267.922
263.765
259.609
255.453
251.296
247.14
242.984
238.828
234.672
230.516
226.36
222.204
218.049
213.893
209.737
205.581
201.425
197.269
193.113
188.957
184.802
180.646
176.49
172.334
168.178
164.022
159.866
155.711
151.555
147.399
143.243
139.087
134.932
130.776
126.62
122.464
118.308
114.152
109.997
105.841
101.685
97.5292
93.3734
89.2175
85.0617
80.9059
76.7501
72.5943
68.4386
64.2829
60.1273
55.9717
51.8164
47.6613
43.5066
39.3524
35.1991
31.0469
26.8966
22.7489
18.6049
14.4657
10.3313
6.20234
2.06797
421.174
414.35
410.065
404.607
399.881
395.055
390.452
385.898
381.439
377.03
372.674
368.356
364.069
359.808
355.567
351.342
347.131
342.931
338.739
334.555
330.376
326.202
322.031
317.863
313.698
309.534
305.372
301.212
297.052
292.893
288.735
284.577
280.419
276.262
272.105
267.949
263.792
259.636
255.479
251.323
247.167
243.011
238.855
234.699
230.543
226.387
222.231
218.075
213.92
209.764
205.608
201.452
197.296
193.14
188.984
184.829
180.673
176.517
172.361
168.205
164.049
159.893
155.738
151.582
147.426
143.27
139.114
134.959
130.803
126.647
122.491
118.335
114.179
110.024
105.868
101.712
97.5561
93.4003
89.2445
85.0887
80.9329
76.7771
72.6213
68.4655
64.3098
60.1542
55.9987
51.8434
47.6883
43.5336
39.3794
35.226
31.0739
26.9236
22.7758
18.6319
14.4927
10.3591
6.22869
2.09056
421.038
414.376
410.105
404.64
399.908
395.079
390.477
385.923
381.463
377.055
372.699
368.38
364.094
359.832
355.591
351.367
347.156
342.955
338.764
334.579
330.4
326.226
322.055
317.887
313.722
309.559
305.397
301.236
297.076
292.917
288.759
284.601
280.444
276.286
272.13
267.973
263.816
259.66
255.504
251.348
247.191
243.035
238.879
234.723
230.568
226.412
222.256
218.1
213.944
209.788
205.632
201.476
197.32
193.165
189.009
184.853
180.697
176.541
172.385
168.229
164.074
159.918
155.762
151.606
147.45
143.294
139.139
134.983
130.827
126.671
122.515
118.36
114.204
110.048
105.892
101.736
97.5804
93.4246
89.2688
85.113
80.9572
76.8014
72.6456
68.4898
64.3341
60.1785
56.023
51.8677
47.7126
43.5578
39.4037
35.2503
31.0982
26.9478
22.8001
18.6562
14.5171
10.3843
6.25242
2.11084
420.921
414.397
410.14
404.671
399.932
395.101
390.499
385.945
381.485
377.077
372.721
368.402
364.116
359.854
355.613
351.388
347.177
342.977
338.786
334.601
330.422
326.248
322.077
317.909
313.744
309.58
305.418
301.257
297.098
292.939
288.78
284.623
280.465
276.308
272.151
267.994
263.838
259.682
255.525
251.369
247.213
243.057
238.901
234.745
230.589
226.433
222.277
218.121
213.965
209.81
205.654
201.498
197.342
193.186
189.03
184.874
180.719
176.563
172.407
168.251
164.095
159.939
155.784
151.628
147.472
143.316
139.16
135.004
130.849
126.693
122.537
118.381
114.225
110.069
105.914
101.758
97.602
93.4462
89.2904
85.1346
80.9787
76.8229
72.6672
68.5114
64.3557
60.2001
56.0446
51.8893
47.7342
43.5794
39.4253
35.2719
31.1197
26.9694
22.8216
18.6778
14.5387
10.4067
6.27354
2.12882
420.822
414.414
410.171
404.697
399.953
395.12
390.518
385.964
381.505
377.096
372.74
368.421
364.135
359.873
355.632
351.407
347.196
342.996
338.804
334.62
330.441
326.267
322.096
317.928
313.763
309.599
305.437
301.276
297.117
292.958
288.799
284.641
280.484
276.327
272.17
268.013
263.857
259.7
255.544
251.388
247.232
243.076
238.92
234.764
230.608
226.452
222.296
218.14
213.984
209.828
205.673
201.517
197.361
193.205
189.049
184.893
180.737
176.582
172.426
168.27
164.114
159.958
155.802
151.647
147.491
143.335
139.179
135.023
130.867
126.712
122.556
118.4
114.244
110.088
105.933
101.777
97.6209
93.4651
89.3093
85.1535
80.9976
76.8418
72.6861
68.5303
64.3746
60.219
56.0635
51.9082
47.7531
43.5983
39.4441
35.2908
31.1386
26.9883
22.8405
18.6968
14.5577
10.4264
6.29204
2.14452
420.738
414.426
410.197
404.72
399.971
395.136
390.535
385.98
381.521
377.113
372.757
368.438
364.151
359.889
355.648
351.424
347.213
343.012
338.821
334.636
330.457
326.283
322.112
317.944
313.779
309.615
305.453
301.293
297.133
292.974
288.815
284.658
280.5
276.343
272.186
268.03
263.873
259.717
255.56
251.404
247.248
243.092
238.936
234.78
230.624
226.468
222.312
218.156
214.001
209.845
205.689
201.533
197.377
193.221
189.065
184.91
180.754
176.598
172.442
168.286
164.13
159.974
155.819
151.663
147.507
143.351
139.195
135.039
130.884
126.728
122.572
118.416
114.26
110.105
105.949
101.793
97.6371
93.4813
89.3255
85.1696
81.0138
76.858
72.7022
68.5465
64.3908
60.2352
56.0797
51.9243
47.7692
43.6145
39.4603
35.307
31.1548
27.0045
22.8566
18.713
14.574
10.4433
6.30791
2.15796
420.671
414.436
410.219
404.74
399.986
395.15
390.548
385.994
381.535
377.127
372.77
368.451
364.165
359.903
355.662
351.437
347.226
343.026
338.834
334.65
330.471
326.296
322.126
317.958
313.792
309.629
305.467
301.306
297.146
292.987
288.829
284.671
280.514
276.357
272.2
268.043
263.887
259.73
255.574
251.418
247.262
243.106
238.95
234.794
230.638
226.482
222.326
218.17
214.014
209.858
205.702
201.546
197.391
193.235
189.079
184.923
180.767
176.611
172.455
168.3
164.144
159.988
155.832
151.676
147.52
143.365
139.209
135.053
130.897
126.741
122.586
118.43
114.274
110.118
105.962
101.806
97.6506
93.4948
89.339
85.1831
81.0273
76.8715
72.7157
68.56
64.4043
60.2487
56.0932
51.9378
47.7827
43.628
39.4738
35.3205
31.1683
27.0179
22.8701
18.7265
14.5875
10.4575
6.32115
2.16914
420.617
414.443
410.236
404.755
399.998
395.161
390.559
386.005
381.546
377.137
372.781
368.462
364.175
359.914
355.673
351.448
347.237
343.037
338.845
334.66
330.481
326.307
322.136
317.969
313.803
309.64
305.478
301.317
297.157
292.998
288.84
284.682
280.524
276.367
272.21
268.054
263.897
259.741
255.585
251.429
247.272
243.116
238.96
234.804
230.648
226.493
222.337
218.181
214.025
209.869
205.713
201.557
197.401
193.246
189.09
184.934
180.778
176.622
172.466
168.31
164.155
159.999
155.843
151.687
147.531
143.375
139.22
135.064
130.908
126.752
122.596
118.44
114.285
110.129
105.973
101.817
97.6614
93.5056
89.3497
85.1939
81.0381
76.8823
72.7265
68.5708
64.4151
60.2595
56.104
51.9486
47.7935
43.6388
39.4846
35.3312
31.1791
27.0287
22.8809
18.7374
14.5983
10.4688
6.33175
2.17808
420.578
414.448
410.249
404.767
400.007
395.169
390.567
386.013
381.554
377.146
372.789
368.47
364.184
359.922
355.681
351.456
347.245
343.045
338.853
334.669
330.49
326.315
322.144
317.977
313.811
309.648
305.486
301.325
297.165
293.006
288.848
284.69
280.533
276.375
272.219
268.062
263.905
259.749
255.593
251.437
247.281
243.124
238.968
234.812
230.657
226.501
222.345
218.189
214.033
209.877
205.721
201.565
197.409
193.254
189.098
184.942
180.786
176.63
172.474
168.318
164.163
160.007
155.851
151.695
147.539
143.384
139.228
135.072
130.916
126.76
122.604
118.449
114.293
110.137
105.981
101.825
97.6695
93.5137
89.3578
85.202
81.0462
76.8904
72.7346
68.5789
64.4232
60.2676
56.1121
51.9567
47.8016
43.6469
39.4927
35.3393
31.1872
27.0368
22.889
18.7455
14.6065
10.4773
6.3397
2.18478
420.552
414.452
410.257
404.775
400.013
395.174
390.573
386.018
381.56
377.151
372.795
368.476
364.189
359.927
355.686
351.462
347.251
343.05
338.859
334.674
330.495
326.321
322.15
317.982
313.817
309.653
305.491
301.33
297.171
293.012
288.853
284.695
280.538
276.381
272.224
268.067
263.911
259.754
255.598
251.442
247.286
243.13
238.974
234.818
230.662
226.506
222.35
218.194
214.038
209.882
205.727
201.571
197.415
193.259
189.103
184.947
180.791
176.636
172.48
168.324
164.168
160.012
155.856
151.701
147.545
143.389
139.233
135.077
130.921
126.766
122.61
118.454
114.298
110.142
105.987
101.831
97.6749
93.5191
89.3632
85.2074
81.0516
76.8958
72.74
68.5843
64.4286
60.273
56.1175
51.9621
47.807
43.6523
39.4981
35.3447
31.1926
27.0422
22.8944
18.7509
14.6119
10.483
6.345
2.18924
420.539
414.453
410.262
404.778
400.016
395.177
390.575
386.021
381.562
377.154
372.798
368.479
364.192
359.93
355.689
351.464
347.253
343.053
338.861
334.677
330.498
326.323
322.153
317.985
313.819
309.656
305.494
301.333
297.173
293.014
288.856
284.698
280.541
276.384
272.227
268.07
263.914
259.757
255.601
251.445
247.289
243.133
238.977
234.821
230.665
226.509
222.353
218.197
214.041
209.885
205.729
201.573
197.418
193.262
189.106
184.95
180.794
176.638
172.482
168.327
164.171
160.015
155.859
151.703
147.547
143.392
139.236
135.08
130.924
126.768
122.612
118.457
114.301
110.145
105.989
101.833
97.6776
93.5217
89.3659
85.2101
81.0543
76.8985
72.7427
68.587
64.4313
60.2757
56.1202
51.9648
47.8097
43.655
39.5008
35.3474
31.1953
27.0449
22.8971
18.7536
14.6146
10.4858
6.34766
2.19148
420.539
414.453
410.262
404.778
400.016
395.177
390.575
386.021
381.562
377.154
372.798
368.479
364.192
359.93
355.689
351.464
347.253
343.053
338.861
334.677
330.498
326.323
322.153
317.985
313.819
309.656
305.494
301.333
297.173
293.014
288.856
284.698
280.541
276.384
272.227
268.07
263.914
259.757
255.601
251.445
247.289
243.133
238.977
234.821
230.665
226.509
222.353
218.197
214.041
209.885
205.729
201.573
197.418
193.262
189.106
184.95
180.794
176.638
172.482
168.327
164.171
160.015
155.859
151.703
147.547
143.392
139.236
135.08
130.924
126.768
122.612
118.457
114.301
110.145
105.989
101.833
97.6776
93.5217
89.3659
85.2101
81.0543
76.8985
72.7427
68.587
64.4313
60.2757
56.1202
51.9648
47.8097
43.655
39.5008
35.3474
31.1953
27.0449
22.8971
18.7536
14.6146
10.4858
6.34766
2.19148
420.552
414.452
410.257
404.775
400.013
395.174
390.573
386.018
381.56
377.151
372.795
368.476
364.189
359.927
355.686
351.462
347.251
343.05
338.859
334.674
330.495
326.321
322.15
317.982
313.817
309.653
305.491
301.33
297.171
293.012
288.853
284.695
280.538
276.381
272.224
268.067
263.911
259.754
255.598
251.442
247.286
243.13
238.974
234.818
230.662
226.506
222.35
218.194
214.038
209.882
205.727
201.571
197.415
193.259
189.103
184.947
180.791
176.636
172.48
168.324
164.168
160.012
155.856
151.701
147.545
143.389
139.233
135.077
130.921
126.766
122.61
118.454
114.298
110.142
105.986
101.831
97.6749
93.519
89.3632
85.2074
81.0516
76.8958
72.74
68.5843
64.4286
60.273
56.1175
51.9621
47.807
43.6523
39.4981
35.3448
31.1926
27.0422
22.8944
18.7509
14.6119
10.483
6.345
2.18924
420.578
414.448
410.249
404.767
400.007
395.169
390.567
386.013
381.554
377.146
372.789
368.47
364.184
359.922
355.681
351.456
347.245
343.045
338.853
334.669
330.49
326.315
322.144
317.977
313.811
309.648
305.486
301.325
297.165
293.006
288.848
284.69
280.533
276.375
272.219
268.062
263.905
259.749
255.593
251.437
247.281
243.124
238.968
234.812
230.657
226.501
222.345
218.189
214.033
209.877
205.721
201.565
197.409
193.254
189.098
184.942
180.786
176.63
172.474
168.319
164.163
160.007
155.851
151.695
147.539
143.384
139.228
135.072
130.916
126.76
122.604
118.449
114.293
110.137
105.981
101.825
97.6695
93.5136
89.3578
85.202
81.0462
76.8904
72.7346
68.5789
64.4232
60.2676
56.1121
51.9567
47.8016
43.6469
39.4927
35.3394
31.1872
27.0368
22.889
18.7455
14.6065
10.4773
6.3397
2.18478
420.617
414.443
410.236
404.755
399.998
395.161
390.559
386.005
381.546
377.137
372.781
368.462
364.175
359.914
355.673
351.448
347.237
343.037
338.845
334.66
330.481
326.307
322.136
317.969
313.803
309.64
305.478
301.317
297.157
292.998
288.84
284.682
280.524
276.367
272.21
268.054
263.897
259.741
255.585
251.429
247.272
243.116
238.96
234.804
230.648
226.492
222.337
218.181
214.025
209.869
205.713
201.557
197.401
193.246
189.09
184.934
180.778
176.622
172.466
168.31
164.155
159.999
155.843
151.687
147.531
143.375
139.22
135.064
130.908
126.752
122.596
118.44
114.285
110.129
105.973
101.817
97.6614
93.5055
89.3497
85.1939
81.0381
76.8823
72.7265
68.5708
64.4151
60.2595
56.104
51.9486
47.7936
43.6388
39.4846
35.3313
31.1791
27.0288
22.8809
18.7374
14.5983
10.4688
6.33175
2.17808
420.671
414.436
410.219
404.74
399.986
395.15
390.548
385.994
381.535
377.127
372.77
368.451
364.165
359.903
355.662
351.437
347.226
343.026
338.834
334.65
330.471
326.296
322.126
317.958
313.792
309.629
305.467
301.306
297.146
292.987
288.829
284.671
280.514
276.357
272.2
268.043
263.887
259.73
255.574
251.418
247.262
243.106
238.95
234.794
230.638
226.482
222.326
218.17
214.014
209.858
205.702
201.546
197.391
193.235
189.079
184.923
180.767
176.611
172.455
168.3
164.144
159.988
155.832
151.676
147.52
143.365
139.209
135.053
130.897
126.741
122.585
118.43
114.274
110.118
105.962
101.806
97.6506
93.4947
89.3389
85.1831
81.0273
76.8715
72.7157
68.56
64.4043
60.2487
56.0932
51.9379
47.7828
43.628
39.4739
35.3205
31.1683
27.018
22.8701
18.7265
14.5875
10.4575
6.32115
2.16914
420.738
414.426
410.197
404.72
399.971
395.136
390.535
385.98
381.521
377.113
372.757
368.438
364.151
359.889
355.648
351.424
347.213
343.012
338.821
334.636
330.457
326.283
322.112
317.944
313.779
309.615
305.453
301.293
297.133
292.974
288.815
284.658
280.5
276.343
272.186
268.03
263.873
259.717
255.56
251.404
247.248
243.092
238.936
234.78
230.624
226.468
222.312
218.156
214.001
209.845
205.689
201.533
197.377
193.221
189.065
184.909
180.754
176.598
172.442
168.286
164.13
159.974
155.819
151.663
147.507
143.351
139.195
135.039
130.884
126.728
122.572
118.416
114.26
110.104
105.949
101.793
97.6371
93.4812
89.3254
85.1696
81.0138
76.858
72.7022
68.5465
64.3908
60.2352
56.0797
51.9244
47.7693
43.6145
39.4604
35.307
31.1548
27.0045
22.8567
18.713
14.574
10.4433
6.30792
2.15796
420.822
414.414
410.171
404.697
399.953
395.12
390.518
385.964
381.505
377.096
372.74
368.421
364.135
359.873
355.632
351.407
347.196
342.996
338.804
334.62
330.441
326.267
322.096
317.928
313.763
309.599
305.437
301.276
297.117
292.958
288.799
284.641
280.484
276.327
272.17
268.013
263.857
259.701
255.544
251.388
247.232
243.076
238.92
234.764
230.608
226.452
222.296
218.14
213.984
209.828
205.673
201.517
197.361
193.205
189.049
184.893
180.737
176.582
172.426
168.27
164.114
159.958
155.802
151.647
147.491
143.335
139.179
135.023
130.867
126.712
122.556
118.4
114.244
110.088
105.932
101.777
97.6209
93.465
89.3092
85.1534
80.9976
76.8418
72.686
68.5303
64.3746
60.219
56.0635
51.9082
47.7531
43.5984
39.4442
35.2908
31.1386
26.9883
22.8405
18.6968
14.5577
10.4264
6.29205
2.14452
420.921
414.397
410.14
404.671
399.932
395.101
390.499
385.945
381.485
377.077
372.721
368.402
364.115
359.854
355.613
351.388
347.177
342.977
338.785
334.601
330.422
326.248
322.077
317.909
313.744
309.58
305.418
301.257
297.098
292.939
288.78
284.623
280.465
276.308
272.151
267.994
263.838
259.682
255.525
251.369
247.213
243.057
238.901
234.745
230.589
226.433
222.277
218.121
213.965
209.81
205.654
201.498
197.342
193.186
189.03
184.874
180.719
176.563
172.407
168.251
164.095
159.939
155.784
151.628
147.472
143.316
139.16
135.004
130.849
126.693
122.537
118.381
114.225
110.069
105.914
101.758
97.602
93.4461
89.2903
85.1345
80.9787
76.8229
72.6672
68.5114
64.3557
60.2001
56.0446
51.8893
47.7342
43.5795
39.4253
35.2719
31.1198
26.9694
22.8217
18.6779
14.5388
10.4067
6.27355
2.12882
421.038
414.376
410.105
404.64
399.908
395.079
390.477
385.923
381.463
377.055
372.699
368.38
364.094
359.832
355.591
351.367
347.156
342.955
338.764
334.579
330.4
326.226
322.055
317.888
313.722
309.559
305.397
301.236
297.076
292.917
288.759
284.601
280.444
276.286
272.13
267.973
263.816
259.66
255.504
251.348
247.191
243.035
238.879
234.723
230.567
226.412
222.256
218.1
213.944
209.788
205.632
201.476
197.32
193.165
189.009
184.853
180.697
176.541
172.385
168.229
164.074
159.918
155.762
151.606
147.45
143.295
139.139
134.983
130.827
126.671
122.515
118.359
114.204
110.048
105.892
101.736
97.5804
93.4246
89.2687
85.1129
80.9571
76.8013
72.6456
68.4898
64.3341
60.1785
56.023
51.8677
47.7126
43.5579
39.4037
35.2504
31.0982
26.9479
22.8001
18.6562
14.5171
10.3843
6.25243
2.11084
421.174
414.35
410.065
404.607
399.881
395.055
390.452
385.898
381.439
377.031
372.674
368.356
364.069
359.808
355.567
351.342
347.131
342.931
338.739
334.555
330.376
326.202
322.031
317.863
313.698
309.534
305.372
301.212
297.052
292.893
288.735
284.577
280.419
276.262
272.105
267.949
263.792
259.636
255.479
251.323
247.167
243.011
238.855
234.699
230.543
226.387
222.231
218.075
213.92
209.764
205.608
201.452
197.296
193.14
188.984
184.829
180.673
176.517
172.361
168.205
164.049
159.894
155.738
151.582
147.426
143.27
139.114
134.959
130.803
126.647
122.491
118.335
114.179
110.024
105.868
101.712
97.5561
93.4003
89.2445
85.0886
80.9328
76.777
72.6213
68.4655
64.3098
60.1542
55.9987
51.8434
47.6883
43.5336
39.3795
35.2261
31.0739
26.9236
22.7759
18.6319
14.4928
10.3592
6.2287
2.09057
421.331
414.316
410.02
404.57
399.85
395.027
390.424
385.871
381.411
377.003
372.647
368.328
364.042
359.78
355.539
351.315
347.104
342.904
338.712
334.528
330.349
326.175
322.004
317.836
313.671
309.507
305.345
301.185
297.025
292.866
288.708
284.55
280.392
276.235
272.078
267.922
263.765
259.609
255.453
251.296
247.14
242.984
238.828
234.672
230.516
226.36
222.204
218.048
213.893
209.737
205.581
201.425
197.269
193.113
188.957
184.802
180.646
176.49
172.334
168.178
164.022
159.867
155.711
151.555
147.399
143.243
139.087
134.932
130.776
126.62
122.464
118.308
114.152
109.997
105.841
101.685
97.5291
93.3733
89.2175
85.0617
80.9059
76.7501
72.5943
68.4386
64.2829
60.1273
55.9718
51.8164
47.6614
43.5067
39.3525
35.1991
31.047
26.8967
22.7489
18.6049
14.4657
10.3313
6.20235
2.06797
421.511
414.275
409.97
404.529
399.817
394.997
390.394
385.84
381.38
376.973
372.617
368.298
364.012
359.75
355.509
351.285
347.074
342.874
338.683
334.498
330.319
326.145
321.974
317.807
313.641
309.478
305.316
301.155
296.995
292.836
288.678
284.52
280.363
276.205
272.049
267.892
263.735
259.579
255.423
251.267
247.111
242.954
238.798
234.642
230.487
226.331
222.175
218.019
213.863
209.707
205.551
201.395
197.239
193.084
188.928
184.772
180.616
176.46
172.304
168.149
163.993
159.837
155.681
151.525
147.369
143.214
139.058
134.902
130.746
126.59
122.434
118.279
114.123
109.967
105.811
101.655
97.4994
93.3436
89.1878
85.032
80.8762
76.7204
72.5646
68.4089
64.2532
60.0976
55.9421
51.7868
47.6317
43.477
39.3228
35.1695
31.0173
26.867
22.7193
18.5752
14.436
10.3008
6.17342
2.04304
421.716
414.223
409.915
404.486
399.78
394.963
390.36
385.807
381.347
376.939
372.584
368.265
363.979
359.717
355.477
351.253
347.042
342.842
338.65
334.466
330.287
326.113
321.942
317.774
313.609
309.445
305.283
301.123
296.963
292.804
288.646
284.488
280.33
276.173
272.016
267.86
263.703
259.547
255.391
251.234
247.078
242.922
238.766
234.61
230.454
226.298
222.142
217.987
213.831
209.675
205.519
201.363
197.207
193.051
188.895
184.74
180.584
176.428
172.272
168.116
163.96
159.805
155.649
151.493
147.337
143.181
139.025
134.87
130.714
126.558
122.402
118.246
114.09
109.935
105.779
101.623
97.4671
93.3113
89.1555
84.9997
80.8439
76.6881
72.5323
68.3766
64.2209
60.0653
55.9098
51.7545
47.5994
43.4447
39.2906
35.1372
30.9851
26.8348
22.6871
18.5429
14.4036
10.2678
6.14196
2.01579
421.952
414.16
409.856
404.44
399.74
394.927
390.323
385.771
381.311
376.904
372.548
368.23
363.943
359.682
355.442
351.218
347.007
342.807
338.615
334.431
330.252
326.078
321.907
317.739
313.574
309.411
305.249
301.088
296.928
292.769
288.611
284.453
280.296
276.139
271.982
267.825
263.668
259.512
255.356
251.2
247.044
242.888
238.731
234.576
230.42
226.264
222.108
217.952
213.796
209.64
205.484
201.328
197.173
193.017
188.861
184.705
180.549
176.393
172.237
168.082
163.926
159.77
155.614
151.458
147.302
143.147
138.991
134.835
130.679
126.523
122.367
118.212
114.056
109.9
105.744
101.588
97.4324
93.2766
89.1208
84.965
80.8092
76.6534
72.4977
68.3419
64.1862
60.0306
55.8752
51.7198
47.5648
43.4101
39.2559
35.1026
30.9504
26.8001
22.6525
18.5082
14.3689
10.2324
6.10819
1.98639
422.223
414.082
409.792
404.392
399.697
394.888
390.284
385.732
381.273
376.866
372.51
368.192
363.906
359.645
355.405
351.18
346.97
342.77
338.578
334.394
330.215
326.041
321.87
317.703
313.537
309.374
305.212
301.051
296.892
292.733
288.574
284.416
280.259
276.102
271.945
267.788
263.632
259.475
255.319
251.163
247.007
242.851
238.695
234.539
230.383
226.227
222.071
217.915
213.759
209.603
205.448
201.292
197.136
192.98
188.824
184.668
180.512
176.357
172.201
168.045
163.889
159.733
155.577
151.422
147.266
143.11
138.954
134.798
130.642
126.487
122.331
118.175
114.019
109.863
105.707
101.552
97.3958
93.24
89.0842
84.9284
80.7726
76.6168
72.461
68.3053
64.1496
59.994
55.8385
51.6832
47.5281
43.3734
39.2193
35.0659
30.9138
26.7635
22.6159
18.4716
14.3321
10.1952
6.07235
1.95498
422.528
413.987
409.726
404.343
399.652
394.848
390.243
385.692
381.232
376.826
372.471
368.153
363.867
359.606
355.366
351.142
346.931
342.731
338.54
334.356
330.177
326.003
321.832
317.664
313.499
309.336
305.174
301.013
296.853
292.694
288.536
284.378
280.221
276.063
271.907
267.75
263.593
259.437
255.281
251.125
246.969
242.812
238.656
234.5
230.345
226.189
222.033
217.877
213.721
209.565
205.409
201.253
197.097
192.942
188.786
184.63
180.474
176.318
172.162
168.007
163.851
159.695
155.539
151.383
147.227
143.072
138.916
134.76
130.604
126.448
122.292
118.137
113.981
109.825
105.669
101.513
97.3574
93.2016
89.0458
84.89
80.7342
76.5784
72.4226
68.2669
64.1112
59.9556
55.8001
51.6448
47.4898
43.3351
39.1809
35.0276
30.8755
26.7252
22.5776
18.4333
14.2938
10.1564
6.03464
1.92171
422.867
413.877
409.661
404.296
399.609
394.808
390.204
385.654
381.194
376.788
372.433
368.115
363.83
359.569
355.329
351.105
346.894
342.694
338.503
334.319
330.14
325.966
321.795
317.628
313.463
309.299
305.137
300.976
296.817
292.658
288.499
284.342
280.184
276.027
271.87
267.714
263.557
259.401
255.244
251.088
246.932
242.776
238.62
234.464
230.308
226.152
221.996
217.84
213.685
209.529
205.373
201.217
197.061
192.905
188.749
184.593
180.438
176.282
172.126
167.97
163.814
159.658
155.503
151.347
147.191
143.035
138.879
134.724
130.568
126.412
122.256
118.1
113.944
109.788
105.633
101.477
97.321
93.1652
89.0094
84.8536
80.6978
76.542
72.3862
68.2305
64.0748
59.9192
55.7637
51.6084
47.4534
43.2987
39.1445
34.9912