/*--------------------------------*- C++ -*----------------------------------*\
| =========                 |                                                 |
| \\      /  F ield         | OpenFOAM: The Open Source CFD Toolbox           |
|  \\    /   O peration     | Version:  5.x                                   |
|   \\  /    A nd           | Web:      www.OpenFOAM.org                      |
|    \\/     M anipulation  |                                                 |
\*---------------------------------------------------------------------------*/
FoamFile
{
    version     2.0;
    format      ascii;
    class       volScalarField;
    location    "2";
    object      pB;
}
// * * * * * * * * * * * * * * * * * * * * * * * * * * * * * * * * * * * * * //

dimensions      [1 1 -3 0 0 -1 0];

internalField   nonuniform List<scalar> 
4000
(
26.0972
56.5434
72.2501
77.4504
76.648
71.9419
65.2863
57.8053
50.2745
43.1167
36.5696
30.7323
25.6265
21.2239
17.4702
14.2986
11.6384
9.42098
7.58207
6.06384
4.81516
3.79163
2.95513
2.2733
1.71886
1.26901
0.904729
0.610308
0.372738
0.181382
0.0274615
-0.0961396
-0.195274
-0.274663
-0.338176
-0.3889
-0.429386
-0.461643
-0.487326
-0.507738
-0.523957
-0.536808
-0.547005
-0.555056
-0.561431
-0.566445
-0.570415
-0.573517
-0.575971
-0.577881
-0.579393
-0.580561
-0.581497
-0.582211
-0.58279
-0.583229
-0.583585
-0.583846
-0.58406
-0.584208
-0.584323
-0.584384
-0.58443
-0.584429
-0.584413
-0.584364
-0.584299
-0.584196
-0.584078
-0.583902
-0.583689
-0.583395
-0.583015
-0.582494
-0.581813
-0.580889
-0.579665
-0.578019
-0.575843
-0.572942
-0.569115
-0.564056
-0.557431
-0.548759
-0.537507
-0.522981
-0.5044
-0.480873
-0.451476
-0.415371
-0.372039
-0.321663
-0.265847
-0.208593
-0.157952
-0.127585
-0.136653
-0.201047
-0.298272
-0.297717
27.9393
56.5197
71.596
76.7478
75.9781
71.3604
64.7894
57.3885
49.9273
42.8305
36.3357
30.5435
25.4758
21.1052
17.3785
14.2293
11.5877
9.38558
7.55923
6.05128
4.81097
3.79424
2.96324
2.28586
1.73501
1.28803
0.926057
0.633482
0.397387
0.207205
0.0542197
-0.0686409
-0.16719
-0.246114
-0.309261
-0.359697
-0.399955
-0.432033
-0.457577
-0.477879
-0.494013
-0.506797
-0.516943
-0.524953
-0.531298
-0.536287
-0.540238
-0.543327
-0.54577
-0.547671
-0.549177
-0.55034
-0.551271
-0.551983
-0.552558
-0.552995
-0.55335
-0.553609
-0.553822
-0.553968
-0.554083
-0.554144
-0.554189
-0.554189
-0.554174
-0.554125
-0.554062
-0.553959
-0.553842
-0.553668
-0.553455
-0.553161
-0.552784
-0.552265
-0.551587
-0.550667
-0.54945
-0.547813
-0.545648
-0.542763
-0.538957
-0.533928
-0.527342
-0.518723
-0.507539
-0.493106
-0.474648
-0.451284
-0.422105
-0.386284
-0.343326
-0.293425
-0.238186
-0.181553
-0.131355
-0.100572
-0.106679
-0.161957
-0.241712
-0.235473
29.0419
56.374
70.6917
75.7119
74.9531
70.4378
63.9816
56.6971
49.3425
42.3421
35.9324
30.2143
25.2104
20.8942
17.2135
14.1028
11.4935
9.31797
7.51363
6.02375
4.79824
3.79357
2.97237
2.30294
1.75851
1.31671
0.958901
0.669667
0.43625
0.248207
0.0969308
-0.0245713
-0.122041
-0.200108
-0.262577
-0.312477
-0.352312
-0.384055
-0.409336
-0.429432
-0.445404
-0.458062
-0.468109
-0.476042
-0.482327
-0.48727
-0.491184
-0.494246
-0.496666
-0.498551
-0.500044
-0.501196
-0.502119
-0.502826
-0.503395
-0.503828
-0.504178
-0.504435
-0.504645
-0.504789
-0.504903
-0.504964
-0.505009
-0.505009
-0.504996
-0.504947
-0.504887
-0.504785
-0.504669
-0.504497
-0.504286
-0.503993
-0.50362
-0.503105
-0.502434
-0.501522
-0.500318
-0.498698
-0.496557
-0.493703
-0.489939
-0.484966
-0.478453
-0.469933
-0.458877
-0.444613
-0.426377
-0.403301
-0.374496
-0.339154
-0.296799
-0.247636
-0.193236
-0.137412
-0.087586
-0.0556677
-0.0568676
-0.09926
-0.158357
-0.14548
29.148
55.8196
69.3837
74.2071
73.449
69.0595
62.7591
55.6375
48.4365
41.5768
35.2925
29.6844
24.7757
20.541
16.9294
13.8769
11.316
9.18091
7.40991
5.94747
4.74445
3.75814
2.9519
2.2946
1.75998
1.32611
0.974684
0.69058
0.461282
0.276534
0.127892
0.00848922
-0.0873114
-0.16405
-0.225467
-0.274532
-0.313707
-0.344929
-0.369799
-0.389571
-0.40529
-0.417749
-0.42764
-0.435451
-0.441641
-0.446512
-0.450366
-0.453385
-0.455771
-0.457628
-0.4591
-0.460236
-0.461145
-0.461843
-0.462403
-0.462828
-0.463173
-0.463426
-0.463632
-0.463772
-0.463885
-0.463945
-0.463989
-0.46399
-0.463979
-0.463932
-0.463875
-0.463775
-0.46366
-0.463491
-0.463283
-0.462993
-0.462625
-0.462118
-0.461457
-0.460559
-0.459375
-0.457782
-0.455677
-0.452872
-0.449174
-0.444288
-0.437889
-0.429521
-0.418664
-0.40466
-0.386762
-0.364121
-0.335876
-0.301243
-0.259769
-0.211658
-0.15842
-0.103645
-0.0541541
-0.0203843
-0.0147147
-0.0406586
-0.0758969
-0.0531372
28.4936
54.7518
67.6476
72.2419
71.4822
67.2395
61.1325
54.2177
47.2154
40.5393
34.4196
28.9566
24.1737
20.0471
16.5271
13.5518
11.0556
8.97416
7.24761
5.82177
4.64877
3.687
2.90075
2.2597
1.73824
1.315
0.97215
0.694942
0.471186
0.290877
0.145787
0.0292183
-0.0643246
-0.139266
-0.199256
-0.247189
-0.285468
-0.31598
-0.340289
-0.35962
-0.374992
-0.387179
-0.396856
-0.404499
-0.410559
-0.415329
-0.419103
-0.422061
-0.424398
-0.426217
-0.427661
-0.428774
-0.429664
-0.430348
-0.430897
-0.431312
-0.431649
-0.431896
-0.432097
-0.432232
-0.432342
-0.432401
-0.432445
-0.432448
-0.432439
-0.432394
-0.432339
-0.432242
-0.432129
-0.431964
-0.431761
-0.431475
-0.431114
-0.430618
-0.42997
-0.429091
-0.427934
-0.426379
-0.424323
-0.421585
-0.417975
-0.413207
-0.406963
-0.3988
-0.38821
-0.374553
-0.357106
-0.335044
-0.307539
-0.273835
-0.233503
-0.186738
-0.134957
-0.0814483
-0.0322679
0.0039003
0.0177919
0.0102713
0.000277934
0.0324989
27.3636
53.1709
65.478
69.8339
69.077
65.0008
59.1223
52.4557
45.695
39.2437
33.3266
28.0426
23.4153
19.4223
16.0159
13.1364
10.7203
8.70562
7.03429
5.65397
4.51832
3.58712
2.82578
2.20498
1.69995
1.28999
0.957858
0.689282
0.472463
0.297718
0.157082
0.0440721
-0.0466325
-0.119313
-0.177504
-0.22401
-0.261156
-0.290771
-0.314371
-0.333142
-0.348073
-0.359913
-0.369318
-0.376748
-0.382641
-0.387281
-0.390952
-0.393832
-0.396107
-0.397878
-0.399283
-0.400367
-0.401233
-0.401899
-0.402432
-0.402836
-0.403163
-0.403401
-0.403595
-0.403725
-0.403832
-0.40389
-0.403933
-0.403937
-0.403931
-0.403888
-0.403836
-0.403743
-0.403633
-0.403472
-0.403274
-0.402995
-0.402643
-0.402159
-0.401529
-0.400675
-0.399553
-0.398044
-0.39605
-0.393396
-0.389897
-0.385277
-0.379226
-0.371319
-0.361063
-0.34784
-0.330953
-0.309608
-0.283015
-0.250451
-0.211508
-0.166365
-0.116315
-0.0642822
-0.0154454
0.0234271
0.0462359
0.0577816
0.0729544
0.11118
25.9367
51.1159
62.8807
67.0003
66.2546
62.3645
56.7471
50.3676
43.8893
37.7022
32.024
26.9514
22.5083
18.6737
15.402
12.6361
10.3152
8.37974
6.77405
5.44784
4.35664
3.4618
2.73014
2.13347
1.64803
1.25393
0.934596
0.676339
0.467816
0.29973
0.16443
0.0556878
-0.0316093
-0.101573
-0.157601
-0.202387
-0.238167
-0.266698
-0.289441
-0.307534
-0.321931
-0.333349
-0.342423
-0.349593
-0.355283
-0.359764
-0.36331
-0.366092
-0.368292
-0.370003
-0.371362
-0.37241
-0.373247
-0.37389
-0.374405
-0.374793
-0.375107
-0.375336
-0.375522
-0.375646
-0.375749
-0.375805
-0.375847
-0.375853
-0.375848
-0.375808
-0.37576
-0.375671
-0.375565
-0.375409
-0.375217
-0.374946
-0.374605
-0.374137
-0.373528
-0.372703
-0.371622
-0.370169
-0.368251
-0.365696
-0.362331
-0.357888
-0.352069
-0.344468
-0.33461
-0.321904
-0.305683
-0.285189
-0.259673
-0.228448
-0.191127
-0.147864
-0.0998059
-0.0494666
-0.00108539
0.040531
0.072326
0.102492
0.14133
0.181164
24.3198
48.6396
59.8709
63.7589
63.0356
59.3508
54.025
47.969
41.8114
35.9256
30.5209
25.6909
21.4593
17.8066
14.6898
12.0547
9.84332
7.9991
6.469
5.20515
4.16518
3.3123
2.61487
2.04607
1.58324
1.20747
0.902945
0.65663
0.457716
0.297348
0.168237
0.0644507
-0.0188858
-0.0856888
-0.139197
-0.181977
-0.216163
-0.243428
-0.265167
-0.282465
-0.296234
-0.307157
-0.31584
-0.322704
-0.328154
-0.332447
-0.335845
-0.338512
-0.340622
-0.342262
-0.343566
-0.344571
-0.345373
-0.345988
-0.346481
-0.346852
-0.347152
-0.347369
-0.347546
-0.347663
-0.347761
-0.347814
-0.347856
-0.347862
-0.347861
-0.347823
-0.347778
-0.347694
-0.347592
-0.347442
-0.347257
-0.346996
-0.346668
-0.346218
-0.345634
-0.344845
-0.343811
-0.342423
-0.340591
-0.338153
-0.334942
-0.330704
-0.325154
-0.317906
-0.308509
-0.296398
-0.280946
-0.261432
-0.237149
-0.207452
-0.171972
-0.130832
-0.0850183
-0.0366083
0.0111164
0.0552526
0.0955275
0.14287
0.202559
0.24
22.5799
45.7984
56.4725
60.1312
59.4416
55.981
50.975
45.2763
39.4755
33.9262
28.8276
24.2695
20.2753
16.8269
13.8842
11.396
9.30785
7.56627
6.12124
4.92758
3.94531
3.13967
2.48082
1.94344
1.50613
1.15103
0.863227
0.630403
0.442353
0.290719
0.168617
0.0704474
-0.0083957
-0.0716097
-0.122254
-0.162752
-0.195122
-0.220943
-0.241536
-0.257925
-0.270975
-0.281329
-0.289564
-0.296077
-0.301249
-0.305326
-0.308554
-0.311087
-0.313093
-0.314651
-0.315891
-0.316846
-0.317608
-0.318191
-0.318659
-0.319009
-0.319292
-0.319495
-0.319662
-0.319771
-0.319865
-0.319914
-0.319955
-0.319962
-0.319963
-0.319928
-0.319887
-0.319807
-0.319711
-0.319566
-0.31939
-0.31914
-0.318827
-0.318398
-0.317843
-0.317093
-0.316114
-0.314799
-0.313066
-0.310759
-0.307723
-0.303716
-0.29847
-0.29162
-0.282743
-0.271305
-0.256717
-0.238303
-0.215403
-0.18741
-0.153977
-0.115189
-0.0718647
-0.0256428
0.0211282
0.0673023
0.115024
0.177214
0.253968
0.285987
20.7591
42.6465
52.7155
56.1415
55.4963
52.2776
47.6179
42.3079
36.8972
31.717
26.9551
22.6966
18.964
15.7411
12.9904
10.6645
8.71238
7.08417
5.73314
4.61705
3.69855
2.94517
2.329
1.82639
1.41733
1.08513
0.815857
0.597994
0.421999
0.280063
0.165749
0.0738247
-1.74107e-05
-0.0592335
-0.106685
-0.144637
-0.174978
-0.199185
-0.218496
-0.233866
-0.246109
-0.255825
-0.263557
-0.269673
-0.274532
-0.278364
-0.2814
-0.283781
-0.285669
-0.287135
-0.288301
-0.289199
-0.289916
-0.290462
-0.290901
-0.291227
-0.291491
-0.29168
-0.291835
-0.291936
-0.292023
-0.29207
-0.292109
-0.292116
-0.292119
-0.292087
-0.292049
-0.291975
-0.291884
-0.291747
-0.29158
-0.291343
-0.291046
-0.29064
-0.290118
-0.289413
-0.288493
-0.28726
-0.285636
-0.283475
-0.280634
-0.276883
-0.271975
-0.265566
-0.257265
-0.246569
-0.232937
-0.215735
-0.194353
-0.168228
-0.137032
-0.100812
-0.0602194
-0.0164693
0.0289547
0.0764475
0.13013
0.20415
0.293608
0.318338
18.8834
39.2328
48.6329
51.8172
51.2251
48.265
43.9756
39.0832
34.0932
29.3126
24.9157
20.9824
17.534
14.5561
12.0144
9.86492
8.06084
6.55601
5.3073
4.27568
3.42663
2.73018
2.16052
1.69581
1.31756
1.01035
0.7613
0.559775
0.396953
0.265621
0.159828
0.0747419
0.00637959
-0.0484525
-0.0924003
-0.127556
-0.155667
-0.178099
-0.195998
-0.210246
-0.221599
-0.230611
-0.237785
-0.243461
-0.247974
-0.251533
-0.254355
-0.256568
-0.258323
-0.259686
-0.26077
-0.261605
-0.26227
-0.262776
-0.263182
-0.263483
-0.263725
-0.263898
-0.26404
-0.264132
-0.264212
-0.264255
-0.264292
-0.2643
-0.264303
-0.264274
-0.26424
-0.264171
-0.264086
-0.263957
-0.2638
-0.263577
-0.263299
-0.262919
-0.262432
-0.261776
-0.260922
-0.259778
-0.258274
-0.256273
-0.253644
-0.250173
-0.245634
-0.239707
-0.232032
-0.222147
-0.209552
-0.193666
-0.173928
-0.149821
-0.121038
-0.0875884
-0.0499643
-0.00899252
0.0346069
0.0825012
0.140306
0.222671
0.320234
0.336921
16.9688
35.5998
44.2594
47.1875
46.6549
43.9686
40.0715
35.6228
31.0816
26.7282
22.7223
19.1377
15.9945
13.2797
10.9623
9.0025
7.35749
5.98528
4.84655
3.90576
3.13142
2.4962
1.9766
1.55268
1.2076
0.927311
0.700057
0.516147
0.367535
0.247648
0.151057
0.0733608
0.0109242
-0.0391635
-0.0793169
-0.111442
-0.137135
-0.15764
-0.174006
-0.187034
-0.197419
-0.205664
-0.21223
-0.217427
-0.221561
-0.224822
-0.227409
-0.229437
-0.231047
-0.232296
-0.23329
-0.234055
-0.234663
-0.235124
-0.235494
-0.235767
-0.235986
-0.23614
-0.236269
-0.23635
-0.236424
-0.236462
-0.236497
-0.236504
-0.236509
-0.236482
-0.236452
-0.236388
-0.23631
-0.236189
-0.236043
-0.235836
-0.235578
-0.235227
-0.234779
-0.234176
-0.233393
-0.232345
-0.230969
-0.229141
-0.226741
-0.223572
-0.219431
-0.214022
-0.207023
-0.198008
-0.186526
-0.172049
-0.15407
-0.132119
-0.105911
-0.0754204
-0.040997
-0.00312747
0.0381044
0.0853355
0.145179
0.232143
0.33323
0.34208
15.0255
31.7846
39.6297
42.2832
41.8142
39.4149
35.9299
31.9486
27.8814
23.9802
20.389
17.1744
14.3552
11.92
9.84106
8.08279
6.6069
5.37571
4.35396
3.50977
2.81491
2.24486
1.77854
1.39806
1.08831
0.8367
0.632676
0.467547
0.334094
0.226422
0.139659
0.0698577
0.0137566
-0.0312554
-0.0673468
-0.0962254
-0.119327
-0.137765
-0.152485
-0.164204
-0.173548
-0.180967
-0.186879
-0.191558
-0.195283
-0.198221
-0.200554
-0.202383
-0.203834
-0.20496
-0.205857
-0.206545
-0.207093
-0.207505
-0.207836
-0.208077
-0.208271
-0.208406
-0.20852
-0.208591
-0.208656
-0.20869
-0.208722
-0.208728
-0.208733
-0.208709
-0.208682
-0.208624
-0.208553
-0.208441
-0.208307
-0.208117
-0.207881
-0.20756
-0.207154
-0.206608
-0.2059
-0.204956
-0.203718
-0.202073
-0.199917
-0.197071
-0.193352
-0.188497
-0.182215
-0.174126
-0.163827
-0.150845
-0.134728
-0.115057
-0.09157
-0.0642141
-0.0332157
0.00121884
0.0394979
0.0849091
0.144576
0.232317
0.332556
0.334517
13.0602
27.8188
34.7781
37.136
36.7327
34.6318
31.5764
28.0833
24.5126
21.0858
17.9302
15.1049
12.6265
10.4856
8.65771
7.1117
5.81392
4.73127
3.83277
3.09037
2.47927
1.97791
1.56775
1.23308
0.96061
0.739256
0.559751
0.414454
0.297014
0.20225
0.125879
0.0644289
0.0150333
-0.0246035
-0.0563906
-0.0818275
-0.10218
-0.118424
-0.131396
-0.141722
-0.14996
-0.1565
-0.161714
-0.165842
-0.16913
-0.171723
-0.173784
-0.175398
-0.176681
-0.177675
-0.178466
-0.179072
-0.179554
-0.179914
-0.180203
-0.180411
-0.180579
-0.180693
-0.180791
-0.18085
-0.180907
-0.180936
-0.180964
-0.180969
-0.180975
-0.180953
-0.180929
-0.180877
-0.180812
-0.180711
-0.180589
-0.180417
-0.180204
-0.179917
-0.179555
-0.179069
-0.178442
-0.177606
-0.176513
-0.175063
-0.173164
-0.170658
-0.167387
-0.163114
-0.157589
-0.150475
-0.141419
-0.130008
-0.115847
-0.0985665
-0.0779324
-0.0538716
-0.0265107
0.0041572
0.0388817
0.0812822
0.138535
0.223316
0.318684
0.315219
11.0776
23.7299
29.7376
31.7783
31.4408
29.6481
27.0372
24.0506
20.9959
18.063
15.3614
12.942
10.8194
8.98554
7.41981
6.09544
4.98367
4.05618
3.28641
2.65036
2.12678
1.6972
1.34576
1.05897
0.825478
0.635776
0.481925
0.357384
0.256711
0.175468
0.109984
0.0572902
0.014927
-0.0190693
-0.0463375
-0.0681593
-0.085622
-0.0995603
-0.110692
-0.119554
-0.126625
-0.132238
-0.136717
-0.140262
-0.143088
-0.145317
-0.147089
-0.148477
-0.14958
-0.150434
-0.151114
-0.151632
-0.152045
-0.152349
-0.152593
-0.152766
-0.152905
-0.152998
-0.153079
-0.153126
-0.153174
-0.153198
-0.153222
-0.153225
-0.153231
-0.153211
-0.153191
-0.153144
-0.153087
-0.152996
-0.152887
-0.152734
-0.152546
-0.152293
-0.151978
-0.151555
-0.151012
-0.150291
-0.149351
-0.148104
-0.146474
-0.144324
-0.14152
-0.137857
-0.133122
-0.127026
-0.119269
-0.109495
-0.0973707
-0.0825769
-0.0649117
-0.0442899
-0.0207636
0.00581893
0.0363979
0.07462
0.127298
0.205616
0.292528
0.285388
9.08115
19.5419
24.5398
26.2425
25.97
24.4932
22.3397
19.8749
17.3528
14.9305
12.6984
10.6992
8.94503
7.42935
6.1352
5.0405
4.1215
3.3548
2.71847
2.19267
1.75982
1.40469
1.11413
0.87702
0.68396
0.527103
0.399881
0.29689
0.213629
0.146433
0.0922657
0.0486741
0.013625
-0.0145025
-0.0370667
-0.0551238
-0.0695761
-0.0811104
-0.0903237
-0.0976566
-0.10351
-0.108157
-0.111866
-0.114802
-0.117144
-0.11899
-0.120461
-0.12161
-0.122526
-0.123232
-0.123794
-0.12422
-0.12456
-0.124806
-0.125003
-0.12514
-0.125249
-0.125319
-0.125383
-0.125417
-0.125455
-0.125473
-0.125492
-0.125494
-0.125499
-0.125482
-0.125464
-0.125423
-0.125373
-0.125293
-0.125199
-0.125065
-0.124904
-0.124687
-0.12442
-0.124063
-0.123608
-0.123005
-0.122224
-0.121188
-0.119838
-0.118058
-0.115738
-0.112707
-0.108792
-0.10375
-0.0973374
-0.0892582
-0.0792391
-0.0670154
-0.0524185
-0.0353614
-0.0158466
0.00635623
0.032236
0.0651892
0.111301
0.180004
0.255376
0.246397
7.07395
15.2763
19.2155
20.5612
20.352
19.1974
17.5117
15.5815
13.6056
11.7073
9.95781
8.3905
7.01518
5.82676
4.81198
3.95357
3.23292
2.63169
2.13269
1.72035
1.38091
1.10239
0.87452
0.688565
0.537149
0.414124
0.314337
0.233553
0.168239
0.115526
0.0730289
0.0388281
0.0113269
-0.0107422
-0.0284487
-0.0426166
-0.0539577
-0.0630068
-0.0702361
-0.0759876
-0.0805812
-0.0842261
-0.0871378
-0.0894417
-0.091282
-0.0927311
-0.0938875
-0.0947895
-0.0955093
-0.0960618
-0.0965025
-0.0968323
-0.0970956
-0.097282
-0.0974297
-0.0975278
-0.097607
-0.0976538
-0.0976996
-0.0977205
-0.0977479
-0.0977592
-0.0977738
-0.097773
-0.097777
-0.0977621
-0.0977476
-0.0977113
-0.0976701
-0.097601
-0.0975211
-0.0974081
-0.0972746
-0.0970953
-0.0968784
-0.0965894
-0.0962251
-0.0957449
-0.0951265
-0.094309
-0.0932467
-0.0918471
-0.0900257
-0.0876465
-0.0845741
-0.080618
-0.0755872
-0.069249
-0.0613923
-0.0518068
-0.0403609
-0.0269743
-0.0116232
0.00594139
0.0266307
0.0533507
0.0911556
0.147538
0.208823
0.199753
5.05855
10.9521
13.7939
14.7671
14.6194
13.7914
12.5816
11.1958
9.77681
8.41325
7.15631
6.03015
5.04184
4.18779
3.45851
2.84158
2.32365
1.89155
1.53291
1.23656
0.992594
0.792426
0.628649
0.495002
0.386177
0.297758
0.226038
0.167977
0.121031
0.0831433
0.0525957
0.0280124
0.0082429
-0.00761854
-0.0203464
-0.0305269
-0.0386775
-0.0451772
-0.050371
-0.0544993
-0.057799
-0.0604148
-0.0625074
-0.0641611
-0.0654851
-0.0665254
-0.0673582
-0.0680052
-0.0685235
-0.0689174
-0.0692325
-0.069463
-0.0696476
-0.0697718
-0.0698691
-0.0699279
-0.0699761
-0.0699989
-0.0700262
-0.0700335
-0.0700499
-0.0700543
-0.0700637
-0.0700602
-0.0700633
-0.07005
-0.0700386
-0.0700075
-0.0699743
-0.0699167
-0.0698519
-0.06976
-0.0696551
-0.0695145
-0.069349
-0.0691297
-0.0688587
-0.0685038
-0.0680528
-0.0674581
-0.0666907
-0.0656803
-0.0643689
-0.0626555
-0.0604451
-0.0575977
-0.0539788
-0.0494183
-0.0437683
-0.0368746
-0.0286445
-0.0190126
-0.00794848
0.00476494
0.0198569
0.0395477
0.0676205
0.109504
0.15471
0.147059
3.03737
6.58723
8.30356
8.89234
8.80449
8.30649
7.57828
6.74396
5.88947
5.06823
4.31111
3.63268
3.03726
2.5227
2.08329
1.71158
1.3995
1.13915
0.923061
0.744511
0.597528
0.476936
0.378271
0.297764
0.23221
0.178955
0.135755
0.100789
0.0725136
0.0496972
0.0312995
0.0164971
0.00459172
-0.00495442
-0.0126166
-0.0187389
-0.0236419
-0.0275459
-0.0306669
-0.033142
-0.0351235
-0.0366903
-0.0379479
-0.0389384
-0.0397355
-0.0403585
-0.0408609
-0.0412472
-0.0415596
-0.0417912
-0.041978
-0.042107
-0.042211
-0.0422715
-0.0423179
-0.0423365
-0.0423535
-0.0423518
-0.0423602
-0.0423537
-0.0423588
-0.0423556
-0.0423598
-0.0423532
-0.0423552
-0.0423431
-0.0423347
-0.0423088
-0.0422837
-0.0422377
-0.0421886
-0.0421183
-0.0420425
-0.0419414
-0.0418284
-0.0416803
-0.0415043
-0.041277
-0.0409963
-0.040628
-0.0401602
-0.0395452
-0.0387519
-0.0377145
-0.0363795
-0.0346577
-0.032472
-0.0297153
-0.026304
-0.0221405
-0.0171731
-0.0113573
-0.00467105
0.00303277
0.0122231
0.0242912
0.0415761
0.067364
0.095065
0.0899949
1.01276
2.19826
2.77227
2.96935
2.94025
2.77408
2.53093
2.2523
1.96689
1.69256
1.43959
1.21287
1.01386
0.841869
0.694981
0.570721
0.466394
0.379374
0.307154
0.247495
0.198391
0.158119
0.125176
0.098309
0.0764372
0.0586805
0.044276
0.0326278
0.0232053
0.0156093
0.00948231
0.00455941
0.000598128
-0.00256775
-0.0051117
-0.00713319
-0.00875414
-0.0100345
-0.0110604
-0.0118641
-0.0125127
-0.0130186
-0.0134316
-0.0137509
-0.0140147
-0.014215
-0.0143829
-0.014505
-0.0146088
-0.0146757
-0.0147327
-0.0147587
-0.014781
-0.014777
-0.014772
-0.0147504
-0.0147359
-0.0147096
-0.0146989
-0.0146784
-0.0146719
-0.0146608
-0.0146595
-0.0146496
-0.0146503
-0.014639
-0.0146336
-0.0146128
-0.0145958
-0.0145615
-0.0145284
-0.0144801
-0.014434
-0.0143729
-0.0143132
-0.0142371
-0.0141574
-0.014059
-0.0139502
-0.0138106
-0.0136453
-0.0134292
-0.0131588
-0.0128035
-0.0123519
-0.0117657
-0.011026
-0.0100891
-0.00893544
-0.00752557
-0.00584914
-0.00388673
-0.00163414
0.000962318
0.00406282
0.00814182
0.0139901
0.0227092
0.0320492
0.0302883
-1.01299
-2.19865
-2.77263
-2.96971
-2.94045
-2.77419
-2.53114
-2.25265
-1.96746
-1.69336
-1.44072
-1.21441
-1.01582
-0.844223
-0.697707
-0.573763
-0.469709
-0.382869
-0.310779
-0.251183
-0.202104
-0.161809
-0.128826
-0.101885
-0.0799384
-0.0620845
-0.0476027
-0.0358584
-0.0263668
-0.0186927
-0.0125085
-0.00751891
-0.00350936
-0.000273317
0.00231838
0.0044119
0.00608441
0.00743691
0.0085134
0.00938699
0.010076
0.0106351
0.01107
0.0114247
0.0116964
0.0119206
0.0120887
0.0122323
0.0123381
0.0124366
0.0125102
0.0125877
0.0126475
0.0127161
0.0127722
0.0128341
0.0128797
0.0129306
0.0129605
0.0129951
0.0130133
0.0130328
0.0130395
0.0130531
0.0130539
0.0130646
0.0130671
0.0130829
0.0130919
0.0131144
0.0131313
0.0131572
0.0131734
0.0131942
0.0132002
0.0132038
0.0131866
0.0131556
0.0130918
0.013002
0.0128642
0.0126803
0.0124264
0.0120978
0.0116634
0.0111108
0.0104003
0.00951204
0.00840162
0.00704997
0.00542589
0.00352223
0.00132222
-0.00122176
-0.00427487
-0.00830873
-0.0141158
-0.0227928
-0.0320989
-0.0303024
-3.0376
-6.58761
-8.30392
-8.89269
-8.80468
-8.3066
-7.5785
-6.74431
-5.89005
-5.06905
-4.31226
-3.63424
-3.03923
-2.52506
-2.08603
-1.71463
-1.40282
-1.14265
-0.926687
-0.748198
-0.601239
-0.480623
-0.381918
-0.301337
-0.235709
-0.182357
-0.13908
-0.104018
-0.0756736
-0.0527791
-0.0343239
-0.0194547
-0.00750103
0.00211512
0.00982473
0.0160187
0.0209729
0.0249487
0.0281199
0.0306643
0.0326858
0.0343059
0.0355855
0.0366117
0.037417
0.0380642
0.038567
0.0389753
0.0392902
0.0395536
0.0397574
0.0399377
0.0400795
0.0402122
0.0403189
0.0404204
0.0404968
0.0405719
0.040621
0.0406695
0.0406995
0.0407274
0.0407398
0.0407571
0.0407596
0.0407701
0.0407698
0.0407807
0.0407819
0.0407926
0.0407931
0.0407966
0.0407828
0.0407632
0.0407153
0.0406466
0.0405325
0.0403724
0.0401366
0.0398182
0.0393782
0.0387959
0.0380195
0.0370095
0.0356921
0.0340044
0.0318481
0.0291399
0.0257717
0.021666
0.0167507
0.0109932
0.00435907
-0.00329238
-0.0124357
-0.0244585
-0.0417022
-0.0674482
-0.0951149
-0.0900093
-5.05876
-10.9525
-13.7942
-14.7674
-14.6195
-13.7915
-12.5818
-11.1962
-9.7774
-8.41408
-7.15748
-6.03173
-5.04383
-4.19017
-3.46125
-2.84464
-2.32697
-1.89505
-1.53653
-1.24024
-0.996301
-0.796108
-0.632291
-0.49857
-0.389671
-0.301157
-0.22936
-0.171204
-0.124188
-0.086222
-0.0556169
-0.0309664
-0.0111485
0.00478274
0.0175575
0.027809
0.03601
0.0425809
0.047824
0.0520207
0.0553596
0.0580286
0.0601433
0.0618334
0.063166
0.0642312
0.0650649
0.0657349
0.0662565
0.0666829
0.0670153
0.0672973
0.0675197
0.0677156
0.0678717
0.0680121
0.0681185
0.0682172
0.0682853
0.0683476
0.0683891
0.0684256
0.0684438
0.0684648
0.0684692
0.0684797
0.068477
0.0684831
0.0684766
0.0684755
0.0684598
0.0684408
0.068397
0.0683373
0.0682357
0.0680952
0.067885
0.0675969
0.0671907
0.0666458
0.0659069
0.0649301
0.0636366
0.061952
0.05976
0.0569476
0.0533584
0.0488459
0.0432391
0.0364023
0.0282237
0.0186494
0.00763637
-0.0050249
-0.0200705
-0.039716
-0.0677477
-0.109589
-0.15476
-0.147074
-7.07415
-15.2766
-19.2158
-20.5616
-20.3522
-19.1975
-17.5119
-15.5819
-13.6062
-11.7082
-9.95901
-8.39212
-7.0172
-5.82916
-4.81474
-3.95664
-3.23625
-2.6352
-2.13631
-1.72403
-1.38461
-1.10607
-0.878154
-0.692125
-0.540637
-0.417517
-0.317654
-0.236775
-0.171391
-0.1186
-0.0760453
-0.0417766
-0.014227
0.00791154
0.025664
0.039902
0.0512923
0.0604116
0.0676891
0.0735076
0.0781392
0.0818373
0.0847713
0.0871124
0.088962
0.090437
0.0915952
0.0925216
0.0932458
0.0938319
0.0942904
0.0946718
0.0949731
0.0952304
0.0954346
0.0956126
0.0957481
0.0958695
0.0959562
0.0960321
0.0960848
0.0961299
0.0961538
0.0961787
0.0961852
0.0961959
0.096191
0.0961924
0.0961784
0.0961657
0.0961338
0.0960925
0.0960192
0.0959197
0.095765
0.0955535
0.0952485
0.0948345
0.0942606
0.093493
0.0924601
0.0910956
0.0892935
0.0869451
0.0838924
0.0799725
0.074972
0.0686815
0.0608677
0.0513379
0.0399425
0.0266123
0.0113108
-0.00620191
-0.0268459
-0.0535203
-0.0912845
-0.147625
-0.208874
-0.199768
-9.08134
-19.5423
-24.5401
-26.2428
-25.9702
-24.4933
-22.34
-19.8754
-17.3535
-14.9314
-12.6997
-10.7009
-8.94708
-7.43178
-6.13798
-5.04358
-4.12484
-3.3583
-2.72209
-2.19634
-1.76352
-1.40835
-1.11775
-0.88057
-0.68744
-0.530489
-0.403193
-0.300107
-0.216776
-0.149501
-0.095276
-0.0516155
-0.0165182
0.0116783
0.0342873
0.0524137
0.0669134
0.0785168
0.0877765
0.0951748
0.101065
0.105765
0.109496
0.112471
0.114823
0.116696
0.11817
0.119346
0.120267
0.121008
0.121589
0.122067
0.122444
0.122761
0.123011
0.123225
0.123389
0.123532
0.123636
0.123726
0.123789
0.123843
0.123872
0.123901
0.12391
0.123921
0.123914
0.123911
0.12389
0.123866
0.123818
0.123754
0.123652
0.123513
0.123306
0.123026
0.122628
0.12209
0.121353
0.120368
0.119048
0.117305
0.115006
0.112009
0.108114
0.103111
0.096729
0.0886969
0.0787205
0.0665508
0.0520032
0.0350009
0.015534
-0.00661763
-0.0324534
-0.0653608
-0.111432
-0.180093
-0.255429
-0.246414
-11.0777
-23.7302
-29.7378
-31.7786
-31.441
-29.6482
-27.0375
-24.051
-20.9966
-18.064
-15.3627
-12.9437
-10.8215
-8.98801
-7.42263
-6.09855
-4.98703
-4.05969
-3.29003
-2.65403
-2.13046
-1.70086
-1.34937
-1.06251
-0.828948
-0.639153
-0.48523
-0.360595
-0.259851
-0.178529
-0.112988
-0.0602231
-0.0178121
0.0162527
0.0435644
0.0654545
0.0829627
0.0969686
0.108145
0.11707
0.124176
0.129843
0.134343
0.137929
0.140765
0.143023
0.1448
0.146216
0.147327
0.148217
0.148917
0.149487
0.149937
0.150311
0.150605
0.150853
0.151043
0.151207
0.151329
0.151431
0.151504
0.151566
0.151601
0.151634
0.151645
0.151657
0.151648
0.151641
0.151613
0.151577
0.151514
0.151429
0.151298
0.151122
0.150864
0.150515
0.150027
0.14937
0.148474
0.147278
0.145679
0.143569
0.140788
0.137162
0.13245
0.126394
0.118668
0.108942
0.0968592
0.0821176
0.0645
0.0439311
0.0204505
-0.00608162
-0.0366181
-0.0747943
-0.127432
-0.205708
-0.292582
-0.285404
-13.0603
-27.819
-34.7784
-37.1363
-36.7328
-34.632
-31.5767
-28.0838
-24.5133
-21.0868
-17.9315
-15.1066
-12.6287
-10.4881
-8.66056
-7.11484
-5.81729
-4.73479
-3.83639
-3.09404
-2.48295
-1.98156
-1.57135
-1.23661
-0.964069
-0.742623
-0.563047
-0.417656
-0.300147
-0.205304
-0.128873
-0.0673524
-0.0179091
0.0217954
0.0536248
0.0791288
0.0995244
0.115835
0.128848
0.139236
0.147507
0.1541
0.159336
0.163505
0.166805
0.169429
0.171497
0.173142
0.174434
0.175467
0.176279
0.176937
0.177457
0.177884
0.178219
0.1785
0.178715
0.178898
0.179035
0.179149
0.179232
0.179302
0.179343
0.179379
0.179393
0.179405
0.179396
0.179385
0.17935
0.179304
0.179225
0.179119
0.178961
0.178747
0.17844
0.178026
0.177451
0.176678
0.175629
0.17423
0.172364
0.1699
0.166656
0.162423
0.156923
0.149851
0.140829
0.129464
0.115344
0.0981133
0.0775249
0.0535146
0.026197
-0.00442167
-0.0391053
-0.0814598
-0.138673
-0.223412
-0.31874
-0.315236
-15.0256
-31.7848
-39.6299
-42.2834
-41.8144
-39.4151
-35.9303
-31.9491
-27.8822
-23.9812
-20.3904
-17.1763
-14.3574
-11.9225
-9.84395
-8.08595
-6.61028
-5.37923
-4.35758
-3.51343
-2.81858
-2.24849
-1.78212
-1.40157
-1.09176
-0.840056
-0.635962
-0.470742
-0.33722
-0.229467
-0.142645
-0.072771
-0.0166226
0.0284565
0.0645892
0.0935335
0.116676
0.135178
0.149938
0.161715
0.171091
0.178562
0.184496
0.189218
0.192956
0.195928
0.198271
0.200132
0.201595
0.202762
0.203681
0.204421
0.205006
0.205483
0.205857
0.206168
0.206406
0.206606
0.206759
0.206885
0.206976
0.207053
0.2071
0.20714
0.207156
0.207169
0.207159
0.207144
0.207103
0.207046
0.206954
0.206827
0.206642
0.206393
0.206038
0.205561
0.204903
0.20402
0.202825
0.201232
0.199111
0.19631
0.192622
0.18781
0.181557
0.173512
0.163247
0.15031
0.134234
0.114611
0.091167
0.0638588
0.0329012
-0.00148569
-0.0397254
-0.0850909
-0.144718
-0.232416
-0.332614
-0.334536
-16.9689
-35.6
-44.2595
-47.1877
-46.6551
-43.9688
-40.0719
-35.6234
-31.0824
-26.7293
-22.7238
-19.1396
-15.9968
-13.2823
-10.9653
-9.00569
-7.36089
-5.98881
-4.85017
-3.90941
-3.13507
-2.49981
-1.98017
-1.55618
-1.21104
-0.930657
-0.703334
-0.519334
-0.370652
-0.250685
-0.154034
-0.0762638
-0.01378
0.0363741
0.0765679
0.108757
0.13449
0.155055
0.171459
0.184543
0.194959
0.203254
0.209842
0.215083
0.219232
0.222528
0.225128
0.227192
0.228815
0.230108
0.231126
0.231944
0.232589
0.233112
0.233522
0.233859
0.234119
0.234335
0.234502
0.234638
0.234738
0.234822
0.234874
0.234917
0.234937
0.234951
0.23494
0.234922
0.234874
0.234807
0.234701
0.234556
0.234345
0.234061
0.233662
0.233125
0.232388
0.2314
0.230068
0.228292
0.225929
0.222809
0.218702
0.21334
0.206372
0.197404
0.185958
0.171526
0.153586
0.13168
0.105513
0.0750668
0.0406817
0.00285758
-0.0383365
-0.0855223
-0.145325
-0.232247
-0.333291
-0.342099
-18.8834
-39.2329
-48.633
-51.8173
-51.2252
-48.2652
-43.9761
-39.0838
-34.0941
-29.3138
-24.9173
-20.9843
-17.5364
-14.5588
-12.0173
-9.86813
-8.06425
-6.55955
-5.31091
-4.27932
-3.43027
-2.73378
-2.16408
-1.69929
-1.32098
-1.01368
-0.764566
-0.562953
-0.400062
-0.26865
-0.162795
-0.077635
-0.0092251
0.0456728
0.0896604
0.124878
0.153027
0.175517
0.193452
0.207752
0.219134
0.228196
0.235391
0.241114
0.245643
0.24924
0.252078
0.254329
0.256101
0.25751
0.25862
0.259507
0.260208
0.260773
0.261216
0.261578
0.261857
0.262088
0.262266
0.262412
0.26252
0.262609
0.262668
0.262714
0.262736
0.262751
0.26274
0.262719
0.262666
0.262589
0.262471
0.262306
0.262072
0.261755
0.261313
0.26072
0.259909
0.258824
0.257362
0.255414
0.252826
0.249407
0.244906
0.239029
0.231391
0.221554
0.208995
0.193154
0.173453
0.14939
0.120645
0.0872363
0.0496478
0.00871892
-0.0348441
-0.0826939
-0.140457
-0.22278
-0.320298
-0.336942
-20.7591
-42.6466
-52.7155
-56.1416
-55.4965
-52.2779
-47.6184
-42.3086
-36.8981
-31.7183
-26.9568
-22.6987
-18.9664
-15.7438
-12.9934
-10.6677
-8.71581
-7.08771
-5.73675
-4.62069
-3.70218
-2.94875
-2.33254
-1.82985
-1.42073
-1.08845
-0.819113
-0.601164
-0.4251
-0.283084
-0.168707
-0.0767084
-0.00281821
0.0564636
0.103954
0.141967
0.172344
0.196606
0.215951
0.23137
0.243641
0.253406
0.261159
0.267321
0.272199
0.276071
0.279127
0.281549
0.283456
0.284971
0.286164
0.287116
0.287867
0.28847
0.288941
0.289325
0.289622
0.289865
0.290055
0.290209
0.290324
0.290419
0.290482
0.290531
0.290557
0.290573
0.290562
0.290537
0.29048
0.290394
0.290264
0.290082
0.289825
0.289478
0.288996