/*--------------------------------*- C++ -*----------------------------------*\
| =========                 |                                                 |
| \\      /  F ield         | OpenFOAM: The Open Source CFD Toolbox           |
|  \\    /   O peration     | Version:  5.x                                   |
|   \\  /    A nd           | Web:      www.OpenFOAM.org                      |
|    \\/     M anipulation  |                                                 |
\*---------------------------------------------------------------------------*/
FoamFile
{
    version     2.0;
    format      ascii;
    class       surfaceScalarField;
    location    "2";
    object      phi;
}
// * * * * * * * * * * * * * * * * * * * * * * * * * * * * * * * * * * * * * //

dimensions      [0 3 -1 0 0 0 0];

internalField   nonuniform List<scalar> 
7860
(
0.00283434
0.00216566
0.00262127
0.000213075
0.00260892
1.2348e-05
0.00260641
2.50701e-06
0.00260912
-2.70707e-06
0.00260784
1.27857e-06
0.00260673
1.10581e-06
0.00260516
1.57336e-06
0.00260394
1.22422e-06
0.00260285
1.08665e-06
0.00260198
8.67762e-07
0.00260125
7.28103e-07
0.00260065
5.98023e-07
0.00260015
5.00428e-07
0.00259974
4.18219e-07
0.00259938
3.52671e-07
0.00259908
2.98517e-07
0.00259883
2.54156e-07
0.00259861
2.16981e-07
0.00259843
1.84886e-07
0.00259827
1.58372e-07
0.00259813
1.35373e-07
0.00259802
1.15812e-07
0.00259792
9.84837e-08
0.00259784
8.40459e-08
0.00259776
7.1161e-08
0.0025977
6.0489e-08
0.00259765
5.09143e-08
0.00259761
4.31061e-08
0.00259757
3.56295e-08
0.00259754
3.04835e-08
0.00259752
2.51231e-08
0.0025975
2.04221e-08
0.00259748
1.69649e-08
0.00259747
1.49589e-08
0.00259745
1.2152e-08
0.00259744
9.52799e-09
0.00259744
7.61204e-09
0.00259743
6.74285e-09
0.00259743
4.81311e-09
0.00259742
4.29382e-09
0.00259742
3.56531e-09
0.00259741
3.15502e-09
0.00259741
2.28385e-09
0.00259741
1.59972e-09
0.00259741
8.95764e-10
0.00259741
1.94876e-09
0.00259741
1.08277e-09
0.00259741
4.35707e-10
0.00259741
1.99244e-10
0.0025974
8.84593e-10
0.0025974
2.99093e-10
0.0025974
3.94435e-10
0.0025974
7.39393e-11
0.0025974
4.08705e-10
0.0025974
2.29287e-11
0.0025974
3.3318e-10
0.0025974
2.48083e-12
0.0025974
2.62585e-10
0.0025974
2.70411e-11
0.0025974
1.504e-10
0.0025974
-1.51006e-10
0.0025974
2.98316e-10
0.0025974
2.29319e-11
0.0025974
-2.46647e-10
0.0025974
-2.42162e-10
0.0025974
2.90194e-10
0.0025974
-1.69848e-10
0.0025974
4.32338e-11
0.0025974
-7.02959e-11
0.0025974
5.14902e-11
0.0025974
1.03032e-12
0.0025974
2.21889e-10
0.0025974
-2.11118e-10
0.0025974
1.39254e-10
0.0025974
1.08848e-10
0.0025974
2.18349e-10
0.0025974
9.28927e-12
0.0025974
4.73528e-10
0.0025974
3.24462e-10
0.0025974
5.9447e-10
0.0025974
5.77937e-10
0.0025974
1.46024e-09
0.0025974
1.69381e-09
0.00259739
2.36259e-09
0.00259739
3.42233e-09
0.00259739
5.13499e-09
0.00259738
7.14662e-09
0.00259737
1.00279e-08
0.00259736
1.38894e-08
0.00259734
1.9716e-08
0.00259731
2.61519e-08
0.00259728
3.35605e-08
0.00259724
3.75431e-08
0.00259721
3.33139e-08
0.00259718
2.27693e-08
0.00259708
1.01621e-07
0.00259638
6.96119e-07
0.00259378
2.60302e-06
-1.18986e-06
0.00456768
0.00259798
0.00437543
0.000405321
0.00434663
4.11532e-05
0.00434285
6.27974e-06
0.00434585
-5.70308e-06
0.00434431
2.81656e-06
0.00434268
2.73961e-06
0.00434047
3.78268e-06
0.00433868
3.01564e-06
0.0043371
2.66522e-06
0.00433582
2.14299e-06
0.00433475
1.79556e-06
0.00433387
1.47814e-06
0.00433314
1.23824e-06
0.00433252
1.0352e-06
0.004332
8.73612e-07
0.00433156
7.407e-07
0.00433118
6.31154e-07
0.00433086
5.3942e-07
0.00433058
4.61191e-07
0.00433034
3.9549e-07
0.00433014
3.386e-07
0.00432996
2.90327e-07
0.00432981
2.47818e-07
0.00432969
2.11952e-07
0.00432958
1.80325e-07
0.00432948
1.53414e-07
0.00432941
1.29577e-07
0.00432934
1.10006e-07
0.00432928
9.17805e-08
0.00432923
7.79839e-08
0.00432919
6.45758e-08
0.00432916
5.38421e-08
0.00432913
4.48323e-08
0.00432911
3.80712e-08
0.00432909
3.11026e-08
0.00432908
2.51712e-08
0.00432906
2.01205e-08
0.00432905
1.77464e-08
0.00432904
1.33335e-08
0.00432904
1.16656e-08
0.00432903
9.55947e-09
0.00432903
7.99113e-09
0.00432902
5.94549e-09
0.00432902
4.88041e-09
0.00432902
3.34517e-09
0.00432901
4.19521e-09
0.00432901
2.31677e-09
0.00432901
1.71339e-09
0.00432901
1.08163e-09
0.00432901
1.94757e-09
0.00432901
6.94466e-10
0.00432901
8.12242e-10
0.00432901
4.98266e-10
0.00432901
1.11111e-09
0.00432901
2.30131e-11
0.00432901
9.18701e-10
0.00432901
3.32685e-10
0.00432901
7.16108e-10
0.00432901
2.33654e-11
0.00432901
2.98465e-10
0.00432901
-9.31542e-11
0.004329
4.24033e-10
0.004329
-3.56456e-10
0.004329
-3.50466e-10
0.004329
-5.52163e-10
0.004329
4.94024e-10
0.004329
-4.60042e-10
0.004329
5.33918e-11
0.004329
4.44421e-11
0.004329
3.6793e-10
0.004329
-3.25984e-10
0.004329
3.49518e-10
0.004329
-1.72871e-10
0.004329
4.43157e-10
0.004329
1.29803e-10
0.004329
4.94698e-10
0.004329
2.93168e-10
0.004329
1.12612e-09
0.004329
8.34558e-10
0.004329
1.59736e-09
0.004329
1.86906e-09
0.004329
3.41068e-09
0.004329
4.309e-09
0.00432899
6.01667e-09
0.00432899
8.76226e-09
0.00432898
1.29353e-08
0.00432897
1.77463e-08
0.00432895
2.53597e-08
0.00432893
3.50751e-08
0.0043289
4.9403e-08
0.00432886
6.59912e-08
0.00432881
8.57865e-08
0.00432875
9.99193e-08
0.00432868
1.04702e-07
0.00432859
1.11475e-07
0.00432827
4.17484e-07
0.00432694
2.02848e-06
0.00432236
7.18346e-06
7.91077e-06
0.00507208
0.0025259
0.00495551
0.000521895
0.00492282
7.38367e-05
0.00492056
8.54542e-06
0.00492238
-7.52648e-06
0.00492123
3.97255e-06
0.00491955
4.41389e-06
0.00491748
5.85644e-06
0.00491572
4.77361e-06
0.00491419
4.19348e-06
0.00491294
3.3918e-06
0.0049119
2.83717e-06
0.00491104
2.33905e-06
0.00491032
1.95813e-06
0.00490972
1.63938e-06
0.00490921
1.38396e-06
0.00490877
1.17468e-06
0.0049084
1.00205e-06
0.00490808
8.57323e-07
0.00490781
7.34415e-07
0.00490757
6.30996e-07
0.00490737
5.41512e-07
0.0049072
4.65135e-07
0.00490705
3.98026e-07
0.00490692
3.41103e-07
0.00490681
2.91113e-07
0.00490671
2.48147e-07
0.00490663
2.10407e-07
0.00490656
1.79112e-07
0.0049065
1.50192e-07
0.00490645
1.27462e-07
0.00490641
1.06024e-07
0.00490638
8.92595e-08
0.00490635
7.45396e-08
0.00490632
6.25768e-08
0.0049063
5.14458e-08
0.00490628
4.2403e-08
0.00490627
3.38991e-08
0.00490626
2.96008e-08
0.00490625
2.2829e-08
0.00490624
1.98279e-08
0.00490623
1.62326e-08
0.00490623
1.3196e-08
0.00490623
1.00794e-08
0.00490622
8.75874e-09
0.00490622
6.4698e-09
0.00490622
6.60784e-09
0.00490621
3.80243e-09
0.00490621
3.4655e-09
0.00490621
2.35668e-09
0.00490621
2.93831e-09
0.00490621
1.21876e-09
0.00490621
1.33694e-09
0.00490621
1.00124e-09
0.00490621
1.88224e-09
0.00490621
1.98904e-10
0.00490621
1.52873e-09
0.00490621
7.63505e-10
0.00490621
1.11047e-09
0.00490621
1.1922e-10
0.00490621
5.29453e-10
0.00490621
5.5269e-11
0.00490621
4.31413e-10
0.00490621
-8.45652e-10
0.00490621
-3.33158e-10
0.00490621
-7.47336e-10
0.00490621
5.64225e-10
0.00490621
-6.60323e-10
0.00490621
4.5925e-11
0.00490621
9.62031e-11
0.00490621
6.77752e-10
0.00490621
-5.37462e-10
0.00490621
4.31671e-10
0.00490621
-1.16112e-11
0.00490621
8.31525e-10
0.00490621
2.18698e-10
0.0049062
8.38329e-10
0.0049062
7.31952e-10
0.0049062
1.77178e-09
0.0049062
1.37099e-09
0.0049062
2.62406e-09
0.0049062
3.30141e-09
0.0049062
5.23192e-09
0.0049062
6.88143e-09
0.00490619
9.79841e-09
0.00490619
1.41007e-08
0.00490618
2.07676e-08
0.00490617
2.8329e-08
0.00490615
4.07522e-08
0.00490613
5.64513e-08
0.0049061
7.917e-08
0.00490606
1.06564e-07
0.00490601
1.40619e-07
0.00490594
1.69757e-07
0.00490584
2.00745e-07
0.0049057
2.57007e-07
0.00490522
8.91817e-07
0.0049036
3.64853e-06
0.00489776
1.30266e-05
2.27398e-05
0.00520998
0.00231592
0.00513963
0.000592239
0.00511254
0.000100931
0.0051114
9.6895e-06
0.00511247
-8.60418e-06
0.00511164
4.80916e-06
0.00511017
5.88343e-06
0.00510842
7.60048e-06
0.00510691
6.2914e-06
0.00510559
5.50581e-06
0.00510451
4.4721e-06
0.00510361
3.73695e-06
0.00510287
3.084e-06
0.00510224
2.5821e-06
0.00510172
2.16287e-06
0.00510128
1.82686e-06
0.0051009
1.55203e-06
0.00510058
1.32534e-06
0.0051003
1.13543e-06
0.00510006
9.74428e-07
0.00509985
8.38653e-07
0.00509967
7.21248e-07
0.00509952
6.20758e-07
0.00509938
5.3243e-07
0.00509927
4.57097e-07
0.00509917
3.91022e-07
0.00509908
3.34087e-07
0.00509901
2.84411e-07
0.00509894
2.42585e-07
0.00509889
2.04099e-07
0.00509884
1.73448e-07
0.0050988
1.44938e-07
0.00509877
1.22573e-07
0.00509874
1.02602e-07
0.00509872
8.57618e-08
0.0050987
7.08277e-08
0.00509868
5.9037e-08
0.00509867
4.74169e-08
0.00509866
4.10381e-08
0.00509865
3.2134e-08
0.00509864
2.77281e-08
0.00509864
2.27344e-08
0.00509863
1.83149e-08
0.00509863
1.43569e-08
0.00509862
1.2668e-08
0.00509862
9.60554e-09
0.00509862
9.03341e-09
0.00509861
5.48382e-09
0.00509861
5.27834e-09
0.00509861
3.66576e-09
0.00509861
3.75747e-09
0.00509861
1.79208e-09
0.00509861
1.9746e-09
0.00509861
1.51429e-09
0.00509861
2.5274e-09
0.00509861
5.05356e-10
0.00509861
2.07872e-09
0.00509861
1.2109e-09
0.00509861
1.41766e-09
0.00509861
2.9837e-10
0.00509861
8.29084e-10
0.00509861
1.9435e-10
0.00509861
4.12346e-10
0.00509861
-1.20108e-09
0.00509861
-2.96945e-10
0.00509861
-8.8002e-10
0.00509861
4.73467e-10
0.00509861
-8.03659e-10
0.00509861
1.1731e-11
0.00509861
5.01689e-11
0.00509861
7.55006e-10
0.00509861
-6.63817e-10
0.00509861
5.10206e-10
0.00509861
1.56662e-10
0.00509861
1.17407e-09
0.00509861
4.13775e-10
0.00509861
1.22291e-09
0.00509861
1.18101e-09
0.0050986
2.35995e-09
0.0050986
1.93203e-09
0.0050986
3.5317e-09
0.0050986
4.57072e-09
0.0050986
6.81024e-09
0.0050986
9.12366e-09
0.00509859
1.32506e-08
0.00509859
1.88223e-08
0.00509858
2.76621e-08
0.00509857
3.77571e-08
0.00509856
5.4366e-08
0.00509854
7.55461e-08
0.00509851
1.05792e-07
0.00509848
1.43457e-07
0.00509843
1.92478e-07
0.00509836
2.406e-07
0.00509824
3.11942e-07
0.00509806
4.4196e-07
0.00509749
1.4597e-06
0.00509584
5.30188e-06
0.00508957
1.92906e-05
3.78156e-05
0.00523336
0.00208257
0.00519422
0.00063137
0.00517355
0.000121608
0.00517321
1.0024e-05
0.00517383
-9.21719e-06
0.0051733
5.33852e-06
0.00517211
7.07178e-06
0.00517074
8.97319e-06
0.00516952
7.50954e-06
0.00516847
6.55828e-06
0.00516759
5.34375e-06
0.00516687
4.46385e-06
0.00516627
3.68712e-06
0.00516576
3.08513e-06
0.00516534
2.58687e-06
0.00516498
2.18704e-06
0.00516467
1.85973e-06
0.00516441
1.58971e-06
0.00516418
1.36382e-06
0.00516398
1.17263e-06
0.00516381
1.01078e-06
0.00516366
8.70861e-07
0.00516353
7.51063e-07
0.00516342
6.45593e-07
0.00516332
5.55164e-07
0.00516323
4.75869e-07
0.00516316
4.07442e-07
0.0051631
3.48206e-07
0.00516304
2.97478e-07
0.00516299
2.51006e-07
0.00516295
2.13765e-07
0.00516292
1.79422e-07
0.00516289
1.52082e-07
0.00516287
1.27436e-07
0.00516284
1.06324e-07
0.00516283
8.82496e-08
0.00516281
7.41308e-08
0.0051628
5.98396e-08
0.00516279
5.14272e-08
0.00516278
4.07182e-08
0.00516277
3.49082e-08
0.00516277
2.86355e-08
0.00516276
2.30863e-08
0.00516276
1.85241e-08
0.00516275
1.6354e-08
0.00516275
1.24698e-08
0.00516275
1.12654e-08
0.00516275
7.23672e-09
0.00516275
7.01931e-09
0.00516275
4.87435e-09
0.00516274
4.41029e-09
0.00516274
2.37407e-09
0.00516274
2.62481e-09
0.00516274
2.00467e-09
0.00516274
3.01167e-09
0.00516274
8.69267e-10
0.00516274
2.53141e-09
0.00516274
1.60536e-09
0.00516274
1.67076e-09
0.00516274
5.44178e-10
0.00516274
1.15249e-09
0.00516274
2.98228e-10
0.00516274
3.68466e-10
0.00516274
-1.40157e-09
0.00516274
-2.28444e-10
0.00516274
-9.83727e-10
0.00516274
2.49938e-10
0.00516274
-9.17836e-10
0.00516274
-5.59697e-11
0.00516274
-1.00054e-10
0.00516274
6.41623e-10
0.00516274
-7.51621e-10
0.00516274
6.19041e-10
0.00516274
3.09547e-10
0.00516274
1.43115e-09
0.00516274
6.72005e-10
0.00516274
1.61333e-09
0.00516274
1.59894e-09
0.00516274
2.85842e-09
0.00516274
2.5001e-09
0.00516274
4.30807e-09
0.00516274
5.61008e-09
0.00516273
8.09239e-09
0.00516273
1.09858e-08
0.00516273
1.61681e-08
0.00516273
2.27559e-08
0.00516272
3.32987e-08
0.00516271
4.56228e-08
0.0051627
6.56692e-08
0.00516269
9.1552e-08
0.00516266
1.28265e-07
0.00516263
1.75229e-07
0.00516259
2.39151e-07
0.00516252
3.08961e-07
0.0051624
4.30137e-07
0.00516219
6.49167e-07
0.00516161
2.04412e-06
0.00516004
6.86881e-06
0.00515416
2.51745e-05
5.09465e-05
0.00522265
0.00185992
0.00520659
0.000647432
0.00519184
0.000136354
0.00519205
9.81362e-06
0.00519238
-9.55056e-06
0.00519213
5.59756e-06
0.00519124
7.96052e-06
0.00519024
9.97368e-06
0.00518933
8.42173e-06
0.00518854
7.34565e-06
0.00518788
6.00195e-06
0.00518733
5.01369e-06
0.00518687
4.1449e-06
0.00518649
3.46781e-06
0.00518617
2.91001e-06
0.00518589
2.46262e-06
0.00518566
2.0961e-06
0.00518545
1.79363e-06
0.00518528
1.54084e-06
0.00518512
1.32723e-06
0.00518499
1.14571e-06
0.00518487
9.88681e-07
0.00518477
8.54318e-07
0.00518468
7.35754e-07
0.0051846
6.33752e-07
0.00518453
5.44364e-07
0.00518447
4.66939e-07
0.00518442
3.99895e-07
0.00518437
3.42596e-07
0.00518433
2.89888e-07
0.0051843
2.4742e-07
0.00518427
2.08372e-07
0.00518425
1.76799e-07
0.00518423
1.48292e-07
0.00518421
1.23698e-07
0.00518419
1.03199e-07
0.00518418
8.71362e-08
0.00518417
7.06001e-08
0.00518416
6.03295e-08
0.00518415
4.8176e-08
0.00518415
4.1117e-08
0.00518414
3.37394e-08
0.00518414
2.73533e-08
0.00518413
2.23264e-08
0.00518413
1.96273e-08
0.00518413
1.49481e-08
0.00518413
1.32469e-08
0.00518413
8.94187e-09
0.00518412
8.58243e-09
0.00518412
5.88645e-09
0.00518412
4.905e-09
0.00518412
2.92749e-09
0.00518412
3.17395e-09
0.00518412
2.40456e-09
0.00518412
3.33468e-09
0.00518412
1.20525e-09
0.00518412
2.8713e-09
0.00518412
1.91814e-09
0.00518412
1.89377e-09
0.00518412
8.06038e-10
0.00518412
1.42995e-09
0.00518412
3.42703e-10
0.00518412
3.33774e-10
0.00518412
-1.46253e-09
0.00518412
-1.4208e-10
0.00518412
-1.08444e-09
0.00518412
-4.90504e-11
0.00518412
-1.03447e-09
0.00518412
-1.52998e-10
0.00518412
-3.27958e-10
0.00518412
4.41029e-10
0.00518412
-8.27838e-10
0.00518412
7.50347e-10
0.00518412
4.4274e-10
0.00518412
1.57485e-09
0.00518412
9.28309e-10
0.00518412
1.98381e-09
0.00518412
1.96985e-09
0.00518412
3.26575e-09
0.00518412
3.04369e-09
0.00518412
4.94871e-09
0.00518412
6.41601e-09
0.00518411
9.07068e-09
0.00518411
1.24696e-08
0.00518411
1.84484e-08
0.00518411
2.58536e-08
0.0051841
3.76395e-08
0.0051841
5.18111e-08
0.00518409
7.45433e-08
0.00518408
1.04227e-07
0.00518406
1.46301e-07
0.00518403
2.01362e-07
0.00518399
2.79527e-07
0.00518393
3.71531e-07
0.00518381
5.47399e-07
0.0051836
8.59848e-07
0.00518303
2.61487e-06
0.00518165
8.24806e-06
0.00517661
3.02194e-05
6.15794e-05
0.00520399
0.00165593
0.00520551
0.000645914
0.00519609
0.000145772
0.00519665
9.24836e-06
0.00519681
-9.7028e-06
0.00519678
5.6245e-06
0.00519618
8.55603e-06
0.00519553
1.0624e-05
0.00519492
9.03951e-06
0.00519438
7.87901e-06
0.00519393
6.45402e-06
0.00519355
5.3926e-06
0.00519324
4.46227e-06
0.00519297
3.7342e-06
0.00519274
3.13582e-06
0.00519255
2.65613e-06
0.00519238
2.26301e-06
0.00519224
1.93862e-06
0.00519211
1.6674e-06
0.005192
1.43852e-06
0.00519191
1.2436e-06
0.00519182
1.0747e-06
0.00519174
9.30214e-07
0.00519168
8.02462e-07
0.00519162
6.92438e-07
0.00519157
5.96037e-07
0.00519152
5.1207e-07
0.00519148
4.39353e-07
0.00519145
3.77303e-07
0.00519142
3.20123e-07
0.00519139
2.73792e-07
0.00519137
2.31088e-07
0.00519135
1.9614e-07
0.00519133
1.64791e-07
0.00519132
1.37647e-07
0.00519131
1.1531e-07
0.0051913
9.76309e-08
0.00519129
7.92578e-08
0.00519128
6.75057e-08
0.00519127
5.42346e-08
0.00519127
4.62011e-08
0.00519126
3.7963e-08
0.00519126
3.09174e-08
0.00519126
2.55363e-08
0.00519126
2.23495e-08
0.00519125
1.69811e-08
0.00519125
1.49686e-08
0.00519125
1.04581e-08
0.00519125
9.86485e-09
0.00519125
6.64422e-09
0.00519125
5.26258e-09
0.00519125
3.42293e-09
0.00519125
3.56134e-09
0.00519125
2.61428e-09
0.00519125
3.53171e-09
0.00519125
1.47355e-09
0.00519125
3.09254e-09
0.00519125
2.11314e-09
0.00519124
2.07375e-09
0.00519124
1.03645e-09
0.00519124
1.63438e-09
0.00519124
3.04771e-10
0.00519124
3.42983e-10
0.00519124
-1.41659e-09
0.00519124
-5.55844e-11
0.00519124
-1.20596e-09
0.00519124
-3.48561e-10
0.00519124
-1.1558e-09
0.00519124
-2.53386e-10
0.00519124
-6.10593e-10
0.00519124
2.43086e-10
0.00519124
-8.7284e-10
0.00519124
8.66156e-10
0.00519124
5.27259e-10
0.00519124
1.62022e-09
0.00519124
1.13473e-09
0.00519124
2.32255e-09
0.00519124
2.27822e-09
0.00519124
3.57809e-09
0.00519124
3.51424e-09
0.00519124
5.45576e-09
0.00519124
7.00466e-09
0.00519124
9.76604e-09
0.00519124
1.35745e-08
0.00519124
2.00984e-08
0.00519124
2.80059e-08
0.00519123
4.07605e-08
0.00519123
5.63125e-08
0.00519122
8.10163e-08
0.00519121
1.13545e-07
0.0051912
1.5984e-07
0.00519118
2.21643e-07
0.00519115
3.1272e-07
0.00519109
4.26532e-07
0.00519098
6.57045e-07
0.00519078
1.0603e-06
0.00519026
3.13283e-06
0.00518913
9.38132e-06
0.00518513
3.42154e-05
6.96164e-05
0.0051854
0.00147054
0.00520056
0.000630753
0.00519586
0.000150472
0.00519664
8.47213e-06
0.00519665
-9.71891e-06
0.00519681
5.46211e-06
0.00519649
8.87613e-06
0.00519617
1.09531e-05
0.00519582
9.38197e-06
0.00519553
8.17502e-06
0.00519527
6.71195e-06
0.00519505
5.61019e-06
0.00519487
4.64675e-06
0.00519471
3.89024e-06
0.00519458
3.2693e-06
0.00519447
2.77148e-06
0.00519437
2.3635e-06
0.00519428
2.02703e-06
0.0051942
1.74537e-06
0.00519413
1.50772e-06
0.00519407
1.30529e-06
0.00519402
1.12952e-06
0.00519397
9.79123e-07
0.00519392
8.4597e-07
0.00519388
7.31318e-07
0.00519385
6.30807e-07
0.00519382
5.42714e-07
0.00519379
4.66347e-07
0.00519377
4.013e-07
0.00519375
3.41273e-07
0.00519373
2.92441e-07
0.00519371
2.47191e-07
0.0051937
2.09831e-07
0.00519369
1.76706e-07
0.00519368
1.47973e-07
0.00519367
1.24232e-07
0.00519366
1.05258e-07
0.00519365
8.5535e-08
0.00519365
7.28395e-08
0.00519364
5.87646e-08
0.00519364
5.00237e-08
0.00519364
4.11442e-08
0.00519363
3.37297e-08
0.00519363
2.79935e-08
0.00519363
2.44074e-08
0.00519363
1.85095e-08
0.00519363
1.63826e-08
0.00519362
1.16563e-08
0.00519362
1.07695e-08
0.00519362
7.13128e-09
0.00519362
5.49624e-09
0.00519362
3.83326e-09
0.00519362
3.76995e-09
0.00519362
2.56737e-09
0.00519362
3.60868e-09
0.00519362
1.67901e-09
0.00519362
3.1898e-09
0.00519362
2.17632e-09
0.00519362
2.18799e-09
0.00519362
1.20485e-09
0.00519362
1.76468e-09
0.00519362
1.90461e-10
0.00519362
4.05289e-10
0.00519362
-1.30004e-09
0.00519362
-2.59913e-12
0.00519362
-1.36713e-09
0.00519362
-6.05246e-10
0.00519362
-1.25707e-09
0.00519362
-3.48976e-10
0.00519362
-9.10146e-10
0.00519362
8.09385e-11
0.00519362
-8.67649e-10
0.00519362
9.19502e-10
0.00519362
5.28072e-10
0.00519362
1.59827e-09
0.00519362
1.27003e-09
0.00519362
2.60587e-09
0.00519362
2.50827e-09
0.00519362
3.79217e-09
0.00519362
3.87258e-09
0.00519362
5.83374e-09
0.00519362
7.39073e-09
0.00519362
1.02186e-08
0.00519362
1.42816e-08
0.00519362
2.11486e-08
0.00519361
2.9303e-08
0.00519361
4.25813e-08
0.00519361
5.91801e-08
0.00519361
8.51387e-08
0.0051936
1.19571e-07
0.00519359
1.68906e-07
0.00519358
2.35954e-07
0.00519355
3.38052e-07
0.00519351
4.71785e-07
0.00519341
7.52792e-07
0.00519323
1.23738e-06
0.0051928
3.56674e-06
0.00519195
1.02359e-05
0.00518909
3.70753e-05
7.50847e-05
0.00516895
0.00130159
0.0051949
0.000604807
0.00519434
0.000151025
0.00519522
7.59305e-06
0.00519512
-9.6126e-06
0.00519542
5.15453e-06
0.00519536
8.94409e-06
0.00519532
1.09914e-05
0.00519523
9.47089e-06
0.00519515
8.25205e-06
0.00519508
6.78943e-06
0.00519501
5.67747e-06
0.00519495
4.70698e-06
0.0051949
3.94286e-06
0.00519485
3.316e-06
0.00519481
2.81317e-06
0.00519477
2.40111e-06
0.00519474
2.06161e-06
0.00519471
1.77696e-06
0.00519468
1.53663e-06
0.00519465
1.33207e-06
0.00519463
1.15409e-06
0.0051946
1.00187e-06
0.00519458
8.66929e-07
0.00519456
7.50722e-07
0.00519455
6.48776e-07
0.00519453
5.58906e-07
0.00519452
4.80815e-07
0.0051945
4.14455e-07
0.00519449
3.53134e-07
0.00519448
3.03123e-07
0.00519447
2.56538e-07
0.00519446
2.17811e-07
0.00519446
1.83868e-07
0.00519445
1.54425e-07
0.00519444
1.29704e-07
0.00519444
1.09826e-07
0.00519443
8.93324e-08
0.00519443
7.62407e-08
0.00519443
6.17048e-08
0.00519442
5.24581e-08
0.00519442
4.32623e-08
0.00519442
3.56723e-08
0.00519442
2.96567e-08
0.00519442
2.56903e-08
0.00519442
1.94955e-08
0.00519442
1.74135e-08
0.00519441
1.24637e-08
0.00519441
1.12526e-08
0.00519441
7.38246e-09
0.00519441
5.62272e-09
0.00519441
4.11632e-09
0.00519441
3.80541e-09
0.00519441
2.28361e-09
0.00519441
3.56144e-09
0.00519441
1.8472e-09
0.00519441
3.16901e-09
0.00519441
2.12778e-09
0.00519441
2.2367e-09
0.00519441
1.30932e-09
0.00519441
1.83962e-09
0.00519441
3.93538e-11
0.00519441
4.97468e-10
0.00519441
-1.15403e-09
0.00519441
-1.35229e-11
0.00519441
-1.55885e-09
0.00519441
-8.11351e-10
0.00519441
-1.31011e-09
0.00519441
-4.50864e-10
0.00519441
-1.18349e-09
0.00519441
-4.82005e-11
0.00519441
-8.05404e-10
0.00519441
8.98003e-10
0.00519441
4.32144e-10
0.00519441
1.54725e-09
0.00519441
1.35237e-09
0.00519441
2.80381e-09
0.00519441
2.65153e-09
0.00519441
3.92228e-09
0.00519441
4.10328e-09
0.00519441
6.0841e-09
0.00519441
7.57942e-09
0.00519441
1.04611e-08
0.00519441
1.45804e-08
0.00519441
2.15728e-08
0.00519441
2.9771e-08
0.00519441
4.32744e-08
0.00519441
6.0451e-08
0.00519441
8.69571e-08
0.0051944
1.22399e-07
0.0051944
1.73563e-07
0.00519439
2.44214e-07
0.00519437
3.54896e-07
0.00519434
5.05276e-07
0.00519426
8.29113e-07
0.00519412
1.38016e-06
0.00519379
3.89455e-06
0.00519324
1.07929e-05
0.00519154
3.87763e-05
7.80795e-05
0.00515492
0.00114667
0.0051895
0.000570227
0.00519259
0.000147935
0.00519349
6.68623e-06
0.00519326
-9.3815e-06
0.00519367
4.7433e-06
0.00519383
8.78552e-06
0.00519405
1.07692e-05
0.0051942
9.32871e-06
0.00519432
8.12889e-06
0.00519441
6.70087e-06
0.00519448
5.60618e-06
0.00519454
4.65225e-06
0.00519458
3.89942e-06
0.00519462
3.28183e-06
0.00519464
2.78606e-06
0.00519466
2.3798e-06
0.00519468
2.04546e-06
0.00519469
1.76472e-06
0.0051947
1.52743e-06
0.00519471
1.32558e-06
0.00519471
1.14975e-06
0.00519471
9.99573e-07
0.00519472
8.6617e-07
0.00519471
7.51135e-07
0.00519471
6.50252e-07
0.00519471
5.60887e-07
0.00519471
4.82958e-07
0.00519471
4.16842e-07
0.0051947
3.55757e-07
0.0051947
3.05831e-07
0.0051947
2.59136e-07
0.0051947
2.20124e-07
0.00519469
1.86211e-07
0.00519469
1.56792e-07
0.00519469
1.31612e-07
0.00519469
1.11332e-07
0.00519469
9.0685e-08
0.00519468
7.76327e-08
0.00519468
6.30029e-08
0.00519468
5.34323e-08
0.00519468
4.42244e-08
0.00519468
3.66785e-08
0.00519468
3.0483e-08
0.00519468
2.62321e-08
0.00519468
1.99343e-08
0.00519468
1.80052e-08
0.00519468
1.28772e-08
0.00519468
1.1335e-08
0.00519468
7.45659e-09
0.00519468
5.63607e-09
0.00519468
4.23328e-09
0.00519468
3.67842e-09
0.00519468
1.85996e-09
0.00519468
3.40127e-09
0.00519468
1.9933e-09
0.00519468
3.06358e-09
0.00519468
2.02401e-09
0.00519468
2.25292e-09
0.00519468
1.36558e-09
0.00519467
1.87777e-09
0.00519467
-1.01626e-10
0.00519467
5.79513e-10
0.00519467
-1.02246e-09
0.00519467
-1.01564e-10
0.00519467
-1.74618e-09
0.00519467
-9.78378e-10
0.00519467
-1.30835e-09
0.00519467
-5.67888e-10
0.00519467
-1.39951e-09
0.00519467
-1.50613e-10
0.00519468
-7.02633e-10
0.00519467
8.25126e-10
0.00519467
2.68713e-10
0.00519467
1.50063e-09
0.00519468
1.4168e-09
0.00519467
2.90401e-09
0.00519468
2.71372e-09
0.00519467
3.99716e-09
0.00519468
4.21312e-09
0.00519468
6.19736e-09
0.00519468
7.57592e-09
0.00519468
1.04881e-08
0.00519468
1.448e-08
0.00519468
2.14167e-08
0.00519468
2.94792e-08
0.00519468
4.28665e-08
0.00519468
6.01909e-08
0.00519468
8.65602e-08
0.00519468
1.22156e-07
0.00519468
1.73935e-07
0.00519467
2.46406e-07
0.00519467
3.62762e-07
0.00519465
5.25413e-07
0.00519459
8.81608e-07
0.00519449
1.48041e-06
0.00519429
4.10156e-06
0.00519404
1.10435e-05
0.00519348
3.93366e-05
7.87415e-05
0.00514309
0.00100358
0.00518464
0.000528681
0.00519092
0.00014165
0.00519181
5.79906e-06
0.00519145
-9.01729e-06
0.00519192
4.26511e-06
0.00519228
8.42657e-06
0.00519274
1.03153e-05
0.00519309
8.97782e-06
0.00519339
7.82446e-06
0.00519363
6.46111e-06
0.00519383
5.40845e-06
0.00519399
4.4922e-06
0.00519412
3.76756e-06
0.00519423
3.17295e-06
0.00519432
2.69532e-06
0.0051944
2.30388e-06
0.00519446
1.98205e-06
0.00519451
1.71149e-06
0.00519456
1.48258e-06
0.0051946
1.28791e-06
0.00519463
1.11819e-06
0.00519465
9.73556e-07
0.00519468
8.44684e-07
0.00519469
7.33292e-07
0.00519471
6.35808e-07
0.00519472
5.49126e-07
0.00519473
4.73205e-07
0.00519474
4.08783e-07
0.00519474
3.49397e-07
0.00519475
3.00758e-07
0.00519475
2.55129e-07
0.00519476
2.16885e-07
0.00519476
1.83779e-07
0.00519476
1.54996e-07
0.00519476
1.29985e-07
0.00519476
1.09903e-07
0.00519476
8.96881e-08
0.00519476
7.69672e-08
0.00519476
6.25955e-08
0.00519476
5.29458e-08
0.00519476
4.40118e-08
0.00519476
3.67036e-08
0.00519476
3.04689e-08
0.00519476
2.60706e-08
0.00519476
1.98512e-08
0.00519476
1.81216e-08
0.00519476
1.29173e-08
0.00519476
1.10722e-08
0.00519476
7.38642e-09
0.00519476
5.54227e-09
0.00519476
4.15596e-09
0.00519476
3.41703e-09
0.00519476
1.41727e-09
0.00519476
3.16451e-09
0.00519476
2.10785e-09
0.00519476
2.92124e-09
0.00519476
1.93054e-09
0.00519476
2.27726e-09
0.00519476
1.38583e-09
0.00519476
1.88641e-09
0.00519476
-2.01052e-10
0.00519476
6.23368e-10
0.00519476
-9.39764e-10
0.00519476
-2.54747e-10
0.00519476
-1.8895e-09
0.00519476
-1.11089e-09
0.00519476
-1.2837e-09
0.00519476
-6.84098e-10
0.00519476
-1.5454e-09
0.00519476
-2.1874e-10
0.00519476
-5.91719e-10
0.00519476
7.43744e-10
0.00519476
1.00101e-10
0.00519476
1.48831e-09
0.00519476
1.49906e-09
0.00519476
2.92047e-09
0.00519476
2.71733e-09
0.00519476
4.03682e-09
0.00519476
4.23934e-09
0.00519476
6.15557e-09
0.00519476
7.38343e-09
0.00519476
1.02659e-08
0.00519476
1.40061e-08
0.00519477
2.0677e-08
0.00519477
2.84809e-08
0.00519477
4.14249e-08
0.00519477
5.84748e-08
0.00519477
8.40875e-08
0.00519478
1.19004e-07
0.00519478
1.70198e-07
0.00519478
2.42602e-07
0.00519479
3.6136e-07
0.00519478
5.311e-07
0.00519475
9.0714e-07
0.0051947
1.53252e-06
0.00519462
4.17935e-06
0.00519468
1.09878e-05
0.00519521
3.88036e-05
7.72391e-05
0.00513319
0.00087039
0.00518037
0.000481499
0.00518944
0.000132576
0.00519028
4.95806e-06
0.00518978
-8.51177e-06
0.00519029
3.75071e-06
0.00519083
7.89299e-06
0.00519148
9.65767e-06
0.00519202
8.44044e-06
0.00519249
7.35774e-06
0.00519286
6.08531e-06
0.00519318
5.09665e-06
0.00519343
4.23673e-06
0.00519364
3.55523e-06
0.00519382
2.99585e-06
0.00519397
2.54644e-06
0.0051941
2.17797e-06
0.0051942
1.87523e-06
0.00519429
1.62047e-06
0.00519437
1.40479e-06
0.00519444
1.22143e-06
0.00519449
1.06137e-06
0.00519454
9.25323e-07
0.00519458
8.03674e-07
0.00519462
6.98253e-07
0.00519465
6.0631e-07
0.00519467
5.24304e-07
0.00519469
4.52182e-07
0.00519471
3.90841e-07
0.00519472
3.34471e-07
0.00519474
2.8825e-07
0.00519475
2.44802e-07
0.00519476
2.08288e-07
0.00519476
1.76707e-07
0.00519477
1.4913e-07
0.00519477
1.24968e-07
0.00519478
1.05729e-07
0.00519478
8.64398e-08
0.00519478
7.42542e-08
0.00519478
6.04648e-08
0.00519479
5.1076e-08
0.00519479
4.26635e-08
0.00519479
3.57453e-08
0.00519479
2.96231e-08
0.00519479
2.52583e-08
0.00519479
1.92689e-08
0.00519479
1.77443e-08
0.00519479
1.25987e-08
0.00519479
1.05192e-08
0.00519479
7.17224e-09
0.00519479
5.31677e-09
0.00519479
3.8775e-09
0.00519479
3.06591e-09
0.00519479
1.04442e-09
0.00519479
2.89221e-09
0.00519479
2.16421e-09
0.00519479
2.78001e-09
0.00519479
1.89136e-09
0.00519479
2.33441e-09
0.00519479
1.36633e-09
0.00519479
1.85741e-09
0.00519479
-2.49076e-10
0.00519479
6.11131e-10
0.00519479
-9.17948e-10
0.00519479
-4.39486e-10
0.00519479
-1.96281e-09
0.00519479
-1.21125e-09
0.00519479
-1.2755e-09
0.00519479
-7.90326e-10
0.00519479
-1.62033e-09
0.00519479
-2.54807e-10
0.00519479
-5.00681e-10
0.00519479
6.8558e-10
0.00519479
-8.53361e-12
0.00519479
1.51831e-09
0.00519479
1.60506e-09
0.00519479
2.87693e-09
0.00519479
2.69301e-09
0.00519479
4.03879e-09
0.00519479
4.21015e-09
0.00519479
5.94549e-09
0.00519479
7.0088e-09
0.00519479
9.77373e-09
0.0051948
1.31905e-08
0.0051948
1.93846e-08
0.0051948
2.68225e-08
0.0051948
3.90557e-08
0.0051948
5.53958e-08
0.00519481
7.9705e-08
0.00519481
1.13131e-07
0.00519482
1.6256e-07
0.00519483
2.32971e-07
0.00519484
3.50618e-07
0.00519485
5.2175e-07
0.00519486
9.03853e-07
0.00519485
1.53336e-06
0.00519491
4.12513e-06
0.00519526
1.06336e-05
0.00519682
3.72456e-05
7.37586e-05
0.00512493
0.000745457
0.00517667
0.000429757
0.00518817
0.000121083
0.00518895
4.17513e-06
0.0051883
-7.86035e-06
0.00518882
3.2244e-06
0.00518951
7.20941e-06
0.00519034
8.82253e-06
0.00519104
7.73861e-06
0.00519165
6.74767e-06
0.00519215
5.58877e-06
0.00519256
4.68329e-06
0.0051929
3.89596e-06
0.00519319
3.27068e-06
0.00519343
2.75742e-06
0.00519363
2.34522e-06
0.0051938
2.00697e-06
0.00519394
1.72914e-06
0.00519407
1.49518e-06
0.00519418
1.29709e-06
0.00519427
1.12877e-06
0.00519435
9.81477e-07
0.00519442
8.56614e-07
0.00519448
7.44618e-07
0.00519453
6.47375e-07
0.00519457
5.62891e-07
0.00519461
4.87316e-07
0.00519464
4.20674e-07
0.00519467
3.63763e-07
0.00519469
3.11552e-07
0.00519471
2.68788e-07
0.00519472
2.28548e-07
0.00519474
1.94623e-07
0.00519475
1.65211e-07
0.00519476
1.39435e-07
0.00519477
1.16803e-07
0.00519477
9.90136e-08
0.00519478
8.10357e-08
0.00519478
6.95743e-08
0.00519479
5.66824e-08
0.00519479
4.79464e-08
0.00519479
4.02533e-08
0.00519479
3.38262e-08
0.0051948
2.79652e-08
0.0051948
2.38418e-08
0.0051948
1.81964e-08
0.0051948
1.68554e-08
0.0051948
1.19159e-08
0.0051948
9.72176e-09
0.0051948
6.7937e-09
0.0051948
4.9295e-09
0.0051948
3.40829e-09
0.0051948
2.66451e-09
0.0051948
7.70427e-10
0.0051948
2.60129e-09
0.0051948
2.12964e-09
0.0051948
2.64638e-09
0.0051948
1.9118e-09
0.0051948
2.41666e-09
0.0051948
1.29939e-09
0.0051948
1.77947e-09
0.0051948
-2.4844e-10
0.0051948
5.50621e-10
0.0051948
-9.51855e-10
0.0051948
-6.14718e-10
0.0051948
-1.96048e-09
0.0051948
-1.28076e-09
0.0051948
-1.31618e-09
0.0051948
-8.81716e-10
0.0051948
-1.63541e-09
0.0051948
-2.68257e-10
0.0051948
-4.5011e-10
0.0051948
6.63365e-10
0.0051948
-1.89676e-11
0.0051948
1.5818e-09
0.0051948
1.7183e-09
0.0051948
2.79106e-09
0.0051948
2.66449e-09
0.0051948
3.9901e-09
0.0051948
4.12291e-09
0.0051948
5.57733e-09
0.0051948
6.46281e-09
0.00519481