/*--------------------------------*- C++ -*----------------------------------*\
| =========                 |                                                 |
| \\      /  F ield         | OpenFOAM: The Open Source CFD Toolbox           |
|  \\    /   O peration     | Version:  5.x                                   |
|   \\  /    A nd           | Web:      www.OpenFOAM.org                      |
|    \\/     M anipulation  |                                                 |
\*---------------------------------------------------------------------------*/
FoamFile
{
    version     2.0;
    format      ascii;
    class       volVectorField;
    location    "2";
    object      U;
}
// * * * * * * * * * * * * * * * * * * * * * * * * * * * * * * * * * * * * * //

dimensions      [0 1 -1 0 0 0 0];

internalField   nonuniform List<vector> 
4000
(
(0.537552 0.0563964 0)
(0.55218 0.00359619 0)
(0.517062 -0.00176453 0)
(0.522885 -0.00200106 0)
(0.521069 -0.00213058 0)
(0.522 -0.00203749 0)
(0.521391 -0.00204461 0)
(0.521239 -0.00203476 0)
(0.520895 -0.00204422 0)
(0.520686 -0.00204821 0)
(0.52048 -0.00205399 0)
(0.520324 -0.00205771 0)
(0.52019 -0.00206112 0)
(0.520081 -0.00206368 0)
(0.519989 -0.00206575 0)
(0.519912 -0.00206738 0)
(0.519847 -0.0020687 0)
(0.519791 -0.00206976 0)
(0.519744 -0.00207063 0)
(0.519704 -0.00207135 0)
(0.51967 -0.00207193 0)
(0.51964 -0.00207243 0)
(0.519615 -0.00207285 0)
(0.519594 -0.0020732 0)
(0.519575 -0.00207349 0)
(0.51956 -0.00207375 0)
(0.519547 -0.00207395 0)
(0.519536 -0.00207414 0)
(0.519526 -0.00207429 0)
(0.519518 -0.00207444 0)
(0.519512 -0.00207453 0)
(0.519506 -0.00207463 0)
(0.519502 -0.00207472 0)
(0.519498 -0.00207478 0)
(0.519495 -0.00207481 0)
(0.519492 -0.00207487 0)
(0.51949 -0.00207492 0)
(0.519488 -0.00207496 0)
(0.519487 -0.00207497 0)
(0.519485 -0.00207501 0)
(0.519485 -0.00207501 0)
(0.519484 -0.00207503 0)
(0.519483 -0.00207503 0)
(0.519483 -0.00207505 0)
(0.519482 -0.00207506 0)
(0.519482 -0.00207508 0)
(0.519482 -0.00207505 0)
(0.519481 -0.00207508 0)
(0.519481 -0.00207509 0)
(0.519481 -0.0020751 0)
(0.519481 -0.00207507 0)
(0.519481 -0.00207509 0)
(0.519481 -0.00207509 0)
(0.519481 -0.00207509 0)
(0.519481 -0.00207508 0)
(0.519481 -0.00207509 0)
(0.519481 -0.00207509 0)
(0.519481 -0.00207509 0)
(0.519481 -0.00207508 0)
(0.519481 -0.00207509 0)
(0.519481 -0.00207509 0)
(0.519481 -0.0020751 0)
(0.519481 -0.00207508 0)
(0.519481 -0.00207509 0)
(0.519481 -0.00207509 0)
(0.519481 -0.0020751 0)
(0.519481 -0.00207508 0)
(0.519481 -0.0020751 0)
(0.519481 -0.00207509 0)
(0.519481 -0.0020751 0)
(0.519481 -0.00207509 0)
(0.519481 -0.00207509 0)
(0.519481 -0.00207509 0)
(0.519481 -0.0020751 0)
(0.519481 -0.00207509 0)
(0.519481 -0.00207509 0)
(0.519481 -0.00207509 0)
(0.51948 -0.00207509 0)
(0.51948 -0.00207508 0)
(0.51948 -0.00207508 0)
(0.51948 -0.00207508 0)
(0.51948 -0.00207508 0)
(0.51948 -0.00207506 0)
(0.51948 -0.00207505 0)
(0.519479 -0.00207503 0)
(0.519479 -0.00207501 0)
(0.519478 -0.00207497 0)
(0.519477 -0.00207492 0)
(0.519475 -0.00207485 0)
(0.519473 -0.00207477 0)
(0.519469 -0.00207464 0)
(0.519464 -0.0020745 0)
(0.519458 -0.00207436 0)
(0.519451 -0.00207435 0)
(0.519444 -0.00207464 0)
(0.519436 -0.00207528 0)
(0.519442 -0.00207439 0)
(0.519361 -0.00206119 0)
(0.519228 -0.00202118 0)
(0.518638 -0.0021516 0)
(0.864908 0.128453 0)
(0.911564 0.0160027 0)
(0.861952 0.000986238 0)
(0.871339 -7.05327e-05 0)
(0.867949 -0.000504855 0)
(0.869534 -0.000190036 0)
(0.868573 -0.000201405 0)
(0.868402 -0.000163727 0)
(0.867888 -0.000193459 0)
(0.867591 -0.000206358 0)
(0.867286 -0.000225927 0)
(0.86706 -0.0002389 0)
(0.866861 -0.000251029 0)
(0.866701 -0.000260332 0)
(0.866565 -0.000267527 0)
(0.866451 -0.000273269 0)
(0.866355 -0.000277998 0)
(0.866273 -0.000281883 0)
(0.866203 -0.000285126 0)
(0.866143 -0.000287902 0)
(0.866092 -0.000290214 0)
(0.866048 -0.000292204 0)
(0.86601 -0.00029389 0)
(0.865977 -0.000295379 0)
(0.86595 -0.000296623 0)
(0.865926 -0.000297721 0)
(0.865906 -0.000298642 0)
(0.865889 -0.000299462 0)
(0.865874 -0.000300131 0)
(0.865862 -0.000300761 0)
(0.865851 -0.000301219 0)
(0.865843 -0.000301679 0)
(0.865835 -0.000302056 0)
(0.865829 -0.000302361 0)
(0.865824 -0.000302566 0)
(0.86582 -0.000302801 0)
(0.865817 -0.000303009 0)
(0.865814 -0.00030318 0)
(0.865811 -0.000303256 0)
(0.865809 -0.000303414 0)
(0.865808 -0.000303462 0)
(0.865807 -0.00030353 0)
(0.865806 -0.000303573 0)
(0.865805 -0.000303647 0)
(0.865804 -0.00030369 0)
(0.865803 -0.000303746 0)
(0.865803 -0.00030369 0)
(0.865803 -0.000303759 0)
(0.865802 -0.000303791 0)
(0.865802 -0.000303816 0)
(0.865802 -0.000303772 0)
(0.865802 -0.000303818 0)
(0.865802 -0.000303812 0)
(0.865802 -0.00030383 0)
(0.865801 -0.000303806 0)
(0.865801 -0.000303844 0)
(0.865801 -0.000303811 0)
(0.865801 -0.000303837 0)
(0.865801 -0.000303819 0)
(0.865801 -0.000303843 0)
(0.865801 -0.000303831 0)
(0.865801 -0.000303851 0)
(0.865801 -0.000303825 0)
(0.865801 -0.000303852 0)
(0.865801 -0.000303859 0)
(0.865801 -0.000303865 0)
(0.865801 -0.000303821 0)
(0.865801 -0.000303859 0)
(0.865801 -0.000303838 0)
(0.865801 -0.000303844 0)
(0.865801 -0.000303833 0)
(0.865801 -0.000303851 0)
(0.865801 -0.000303825 0)
(0.865801 -0.000303853 0)
(0.865801 -0.000303829 0)
(0.865801 -0.000303838 0)
(0.865801 -0.000303825 0)
(0.865801 -0.000303836 0)
(0.865801 -0.000303804 0)
(0.865801 -0.000303816 0)
(0.8658 -0.00030379 0)
(0.8658 -0.000303786 0)
(0.8658 -0.000303723 0)
(0.8658 -0.000303698 0)
(0.865799 -0.000303641 0)
(0.865798 -0.00030355 0)
(0.865797 -0.000303408 0)
(0.865795 -0.000303244 0)
(0.865792 -0.000302993 0)
(0.865789 -0.00030267 0)
(0.865784 -0.000302188 0)
(0.865777 -0.000301649 0)
(0.865767 -0.000301028 0)
(0.865755 -0.000300676 0)
(0.865743 -0.000300898 0)
(0.865724 -0.000301453 0)
(0.865718 -0.000293341 0)
(0.865546 -0.000239563 0)
(0.865253 -7.34274e-05 0)
(0.863186 -0.000219174 0)
(0.96032 0.135904 0)
(1.02534 0.0244306 0)
(0.976312 0.00334332 0)
(0.987398 0.000825691 0)
(0.983084 0.000103799 0)
(0.984984 0.00060874 0)
(0.983908 0.0006144 0)
(0.983811 0.000677983 0)
(0.983287 0.000629724 0)
(0.983009 0.000605623 0)
(0.982707 0.000571113 0)
(0.982488 0.000547432 0)
(0.982293 0.000525738 0)
(0.982137 0.000509031 0)
(0.982003 0.000495769 0)
(0.981892 0.000485165 0)
(0.981798 0.000476462 0)
(0.981717 0.000469283 0)
(0.981648 0.000463265 0)
(0.981589 0.000458153 0)
(0.981538 0.000453864 0)
(0.981494 0.000450142 0)
(0.981456 0.000446977 0)
(0.981424 0.000444206 0)
(0.981396 0.000441869 0)
(0.981372 0.000439814 0)
(0.981351 0.000438063 0)
(0.981334 0.000436519 0)
(0.981319 0.000435231 0)
(0.981306 0.000434036 0)
(0.981295 0.000433116 0)
(0.981286 0.000432234 0)
(0.981279 0.00043154 0)
(0.981272 0.000430947 0)
(0.981267 0.00043048 0)
(0.981262 0.000430016 0)
(0.981258 0.000429637 0)
(0.981255 0.000429296 0)
(0.981253 0.000429137 0)
(0.981251 0.000428856 0)
(0.981249 0.00042874 0)
(0.981248 0.000428596 0)
(0.981246 0.000428483 0)
(0.981245 0.000428353 0)
(0.981245 0.000428294 0)
(0.981244 0.000428198 0)
(0.981243 0.000428225 0)
(0.981243 0.000428102 0)
(0.981243 0.00042808 0)
(0.981242 0.000428036 0)
(0.981242 0.000428077 0)
(0.981242 0.000428001 0)
(0.981242 0.000428007 0)
(0.981242 0.000427989 0)
(0.981242 0.000428033 0)
(0.981242 0.000427958 0)
(0.981242 0.000428014 0)
(0.981241 0.000427981 0)
(0.981241 0.000428003 0)
(0.981241 0.000427958 0)
(0.981241 0.000427973 0)
(0.981241 0.000427951 0)
(0.981241 0.000427978 0)
(0.981241 0.000427924 0)
(0.981241 0.000427939 0)
(0.981241 0.000427921 0)
(0.981241 0.000427983 0)
(0.981241 0.000427926 0)
(0.981241 0.000427956 0)
(0.981241 0.000427957 0)
(0.981241 0.000427985 0)
(0.981241 0.000427933 0)
(0.981241 0.000427971 0)
(0.981241 0.000427949 0)
(0.981241 0.000427988 0)
(0.981241 0.000427962 0)
(0.981241 0.000427987 0)
(0.981241 0.000427979 0)
(0.981241 0.000428027 0)
(0.981241 0.000428009 0)
(0.981241 0.00042806 0)
(0.98124 0.000428082 0)
(0.98124 0.00042817 0)
(0.98124 0.000428232 0)
(0.981239 0.000428348 0)
(0.981238 0.00042852 0)
(0.981237 0.000428793 0)
(0.981235 0.000429097 0)
(0.981232 0.000429594 0)
(0.981229 0.000430223 0)
(0.981224 0.000431139 0)
(0.981217 0.000432223 0)
(0.981207 0.000433529 0)
(0.981194 0.000434531 0)
(0.981179 0.000435198 0)
(0.981153 0.000436358 0)
(0.981133 0.000458789 0)
(0.98091 0.000569068 0)
(0.980543 0.000943124 0)
(0.977595 0.00117804 0)
(0.984975 0.123291 0)
(1.0595 0.0286581 0)
(1.01374 0.00469235 0)
(1.0259 0.000702459 0)
(1.02098 -0.000183859 0)
(1.02309 0.000443822 0)
(1.02198 0.000481857 0)
(1.02198 0.000563653 0)
(1.0215 0.000501741 0)
(1.02127 0.000466351 0)
(1.021 0.000418321 0)
(1.02082 0.00038417 0)
(1.02065 0.000353187 0)
(1.02051 0.000328917 0)
(1.0204 0.000309817 0)
(1.0203 0.000294825 0)
(1.02022 0.000282551 0)
(1.02015 0.000272427 0)
(1.02009 0.000263942 0)
(1.02004 0.000256736 0)
(1.01999 0.000250662 0)
(1.01995 0.000245415 0)
(1.01992 0.000240932 0)
(1.01989 0.000236986 0)
(1.01986 0.000233627 0)
(1.01984 0.000230682 0)
(1.01982 0.000228145 0)
(1.01981 0.000225925 0)
(1.01979 0.000224075 0)
(1.01978 0.00022237 0)
(1.01977 0.000221019 0)
(1.01976 0.000219754 0)
(1.01976 0.000218767 0)
(1.01975 0.000217892 0)
(1.01975 0.000217163 0)
(1.01974 0.000216506 0)
(1.01974 0.000215984 0)
(1.01974 0.00021548 0)
(1.01973 0.000215209 0)
(1.01973 0.000214814 0)
(1.01973 0.00021463 0)
(1.01973 0.000214416 0)
(1.01973 0.000214228 0)
(1.01973 0.00021405 0)
(1.01972 0.000213974 0)
(1.01972 0.000213842 0)
(1.01972 0.00021383 0)
(1.01972 0.00021367 0)
(1.01972 0.000213657 0)
(1.01972 0.000213591 0)
(1.01972 0.000213607 0)
(1.01972 0.000213516 0)
(1.01972 0.000213522 0)
(1.01972 0.0002135 0)
(1.01972 0.000213548 0)
(1.01972 0.000213457 0)
(1.01972 0.000213529 0)
(1.01972 0.000213487 0)
(1.01972 0.0002135 0)
(1.01972 0.000213448 0)
(1.01972 0.000213472 0)
(1.01972 0.000213445 0)
(1.01972 0.00021346 0)
(1.01972 0.000213385 0)
(1.01972 0.000213422 0)
(1.01972 0.000213398 0)
(1.01972 0.000213466 0)
(1.01972 0.000213403 0)
(1.01972 0.00021344 0)
(1.01972 0.000213442 0)
(1.01972 0.000213474 0)
(1.01972 0.000213409 0)
(1.01972 0.000213462 0)
(1.01972 0.000213442 0)
(1.01972 0.000213489 0)
(1.01972 0.000213454 0)
(1.01972 0.000213489 0)
(1.01972 0.000213487 0)
(1.01972 0.000213542 0)
(1.01972 0.00021352 0)
(1.01972 0.000213593 0)
(1.01972 0.000213637 0)
(1.01972 0.000213742 0)
(1.01972 0.000213841 0)
(1.01972 0.000214019 0)
(1.01972 0.000214268 0)
(1.01972 0.000214655 0)
(1.01972 0.000215098 0)
(1.01971 0.000215826 0)
(1.01971 0.000216755 0)
(1.01971 0.000218085 0)
(1.0197 0.000219716 0)
(1.01969 0.000221786 0)
(1.01968 0.000223672 0)
(1.01966 0.000226089 0)
(1.01963 0.000230515 0)
(1.0196 0.000271536 0)
(1.01936 0.000444113 0)
(1.01899 0.00104968 0)
(1.01589 0.0017693 0)
(0.988581 0.109968 0)
(1.06796 0.0309669 0)
(1.02559 0.00569908 0)
(1.0385 0.000550131 0)
(1.03316 -0.000405137 0)
(1.03544 0.000299012 0)
(1.03431 0.000370978 0)
(1.03442 0.000464017 0)
(1.03399 0.00039288 0)
(1.03383 0.000348144 0)
(1.0336 0.000289816 0)
(1.03345 0.000247495 0)
(1.03331 0.000209529 0)
(1.03321 0.000179711 0)
(1.03311 0.000156064 0)
(1.03303 0.000137411 0)
(1.03297 0.000122129 0)
(1.03291 0.000109504 0)
(1.03286 9.89143e-05 0)
(1.03282 8.99234e-05 0)
(1.03278 8.22983e-05 0)
(1.03275 7.5679e-05 0)
(1.03272 6.99812e-05 0)
(1.03269 6.49349e-05 0)
(1.03267 6.05761e-05 0)
(1.03265 5.67137e-05 0)
(1.03264 5.33261e-05 0)
(1.03263 5.03492e-05 0)
(1.03261 4.80106e-05 0)
(1.0326 4.58639e-05 0)
(1.03259 4.41484e-05 0)
(1.03259 4.25632e-05 0)
(1.03258 4.13093e-05 0)
(1.03258 4.01867e-05 0)
(1.03257 3.92312e-05 0)
(1.03257 3.84e-05 0)
(1.03256 3.77452e-05 0)
(1.03256 3.70954e-05 0)
(1.03256 3.67249e-05 0)
(1.03256 3.62326e-05 0)
(1.03256 3.59771e-05 0)
(1.03255 3.56951e-05 0)
(1.03255 3.54429e-05 0)
(1.03255 3.5229e-05 0)
(1.03255 3.51315e-05 0)
(1.03255 3.4958e-05 0)
(1.03255 3.49128e-05 0)
(1.03255 3.47215e-05 0)
(1.03255 3.47115e-05 0)
(1.03255 3.46189e-05 0)
(1.03255 3.46072e-05 0)
(1.03255 3.45067e-05 0)
(1.03255 3.45186e-05 0)
(1.03255 3.44927e-05 0)
(1.03255 3.45422e-05 0)
(1.03255 3.44374e-05 0)
(1.03255 3.45185e-05 0)
(1.03255 3.4474e-05 0)
(1.03255 3.44806e-05 0)
(1.03255 3.44242e-05 0)
(1.03255 3.44525e-05 0)
(1.03255 3.44153e-05 0)
(1.03255 3.44222e-05 0)
(1.03255 3.43373e-05 0)
(1.03255 3.43901e-05 0)
(1.03255 3.43574e-05 0)
(1.03255 3.44209e-05 0)
(1.03255 3.43595e-05 0)
(1.03255 3.4402e-05 0)
(1.03255 3.44024e-05 0)
(1.03255 3.44389e-05 0)
(1.03255 3.43683e-05 0)
(1.03255 3.44308e-05 0)
(1.03255 3.44145e-05 0)
(1.03255 3.44688e-05 0)
(1.03255 3.44303e-05 0)
(1.03255 3.44736e-05 0)
(1.03255 3.44736e-05 0)
(1.03255 3.45345e-05 0)
(1.03255 3.45147e-05 0)
(1.03255 3.46012e-05 0)
(1.03255 3.46609e-05 0)
(1.03255 3.47794e-05 0)
(1.03255 3.49111e-05 0)
(1.03255 3.51457e-05 0)
(1.03255 3.54537e-05 0)
(1.03254 3.59419e-05 0)
(1.03254 3.65049e-05 0)
(1.03254 3.74263e-05 0)
(1.03254 3.86117e-05 0)
(1.03253 4.02987e-05 0)
(1.03253 4.2427e-05 0)
(1.03252 4.52568e-05 0)
(1.03251 4.81862e-05 0)
(1.03249 5.32218e-05 0)
(1.03246 6.23419e-05 0)
(1.03242 0.000123608 0)
(1.03218 0.000349242 0)
(1.03186 0.00116823 0)
(1.02902 0.00229704 0)
(0.986403 0.0982878 0)
(1.06823 0.0321943 0)
(1.02897 0.00652561 0)
(1.04243 0.000505582 0)
(1.0368 -0.000469431 0)
(1.03922 0.000278938 0)
(1.03808 0.000382379 0)
(1.03829 0.000481223 0)
(1.03792 0.000405091 0)
(1.03782 0.000353852 0)
(1.03764 0.000289184 0)
(1.03753 0.000241922 0)
(1.03742 0.000200261 0)
(1.03734 0.000167837 0)
(1.03727 0.000141123 0)
(1.03721 0.000119693 0)
(1.03716 0.000102123 0)
(1.03711 8.76072e-05 0)
(1.03707 7.54449e-05 0)
(1.03704 6.51382e-05 0)
(1.03701 5.63674e-05 0)
(1.03699 4.87536e-05 0)
(1.03696 4.22051e-05 0)
(1.03694 3.63956e-05 0)
(1.03693 3.13617e-05 0)
(1.03691 2.6906e-05 0)
(1.0369 2.29947e-05 0)
(1.03689 1.95708e-05 0)
(1.03688 1.68425e-05 0)
(1.03687 1.43383e-05 0)
(1.03686 1.23245e-05 0)
(1.03686 1.04705e-05 0)
(1.03685 8.98195e-06 0)
(1.03685 7.63806e-06 0)
(1.03684 6.47804e-06 0)
(1.03684 5.49985e-06 0)
(1.03684 4.72954e-06 0)
(1.03684 3.94221e-06 0)
(1.03683 3.4604e-06 0)
(1.03683 2.86813e-06 0)
(1.03683 2.53039e-06 0)
(1.03683 2.16997e-06 0)
(1.03683 1.84293e-06 0)
(1.03683 1.60237e-06 0)
(1.03683 1.48198e-06 0)
(1.03683 1.26723e-06 0)
(1.03683 1.19322e-06 0)
(1.03683 9.82885e-07 0)
(1.03682 9.69696e-07 0)
(1.03682 8.49593e-07 0)
(1.03682 8.11924e-07 0)
(1.03682 7.103e-07 0)
(1.03682 7.23616e-07 0)
(1.03682 6.89739e-07 0)
(1.03682 7.37645e-07 0)
(1.03682 6.30528e-07 0)
(1.03682 7.14251e-07 0)
(1.03682 6.66385e-07 0)
(1.03682 6.67025e-07 0)
(1.03682 6.11248e-07 0)
(1.03682 6.43279e-07 0)
(1.03682 5.94525e-07 0)
(1.03682 5.95289e-07 0)
(1.03682 5.05244e-07 0)
(1.03682 5.68768e-07 0)
(1.03682 5.26929e-07 0)
(1.03682 5.83011e-07 0)
(1.03682 5.28331e-07 0)
(1.03682 5.72833e-07 0)
(1.03682 5.67233e-07 0)
(1.03682 6.05412e-07 0)
(1.03682 5.38362e-07 0)
(1.03682 6.12421e-07 0)
(1.03682 5.96804e-07 0)
(1.03682 6.53758e-07 0)
(1.03682 6.1865e-07 0)
(1.03682 6.68187e-07 0)
(1.03682 6.67878e-07 0)
(1.03682 7.32137e-07 0)
(1.03682 7.17401e-07 0)
(1.03682 8.11203e-07 0)
(1.03682 8.81776e-07 0)
(1.03682 1.0103e-06 0)
(1.03682 1.16949e-06 0)
(1.03682 1.45034e-06 0)
(1.03682 1.80303e-06 0)
(1.03682 2.399e-06 0)
(1.03682 3.09619e-06 0)
(1.03682 4.19849e-06 0)
(1.03682 5.6168e-06 0)
(1.03681 7.61611e-06 0)
(1.03681 1.01928e-05 0)
(1.0368 1.37674e-05 0)
(1.03679 1.78188e-05 0)
(1.03678 2.55476e-05 0)
(1.03674 3.93693e-05 0)
(1.0367 0.000119375 0)
(1.03647 0.000383934 0)
(1.03621 0.00139859 0)
(1.03382 0.00284685 0)
(0.983105 0.0876812 0)
(1.06611 0.0325082 0)
(1.02959 0.00711839 0)
(1.04347 0.000482754 0)
(1.03762 -0.000481856 0)
(1.04015 0.000284716 0)
(1.03902 0.000418087 0)
(1.03933 0.000520677 0)
(1.039 0.000441807 0)
(1.03896 0.000385506 0)
(1.03883 0.000315884 0)
(1.03876 0.000264367 0)
(1.03868 0.000219198 0)
(1.03863 0.000183957 0)
(1.03857 0.000154866 0)
(1.03853 0.000131506 0)
(1.0385 0.000112363 0)
(1.03846 9.65633e-05 0)
(1.03844 8.33531e-05 0)
(1.03841 7.21977e-05 0)
(1.03839 6.27041e-05 0)
(1.03837 5.44816e-05 0)
(1.03836 4.7444e-05 0)
(1.03834 4.12236e-05 0)
(1.03833 3.58649e-05 0)
(1.03832 3.11656e-05 0)
(1.03831 2.7079e-05 0)
(1.0383 2.3536e-05 0)
(1.03829 2.05237e-05 0)
(1.03829 1.77474e-05 0)
(1.03828 1.55013e-05 0)
(1.03828 1.34301e-05 0)
(1.03827 1.17412e-05 0)
(1.03827 1.02177e-05 0)
(1.03827 8.89308e-06 0)
(1.03826 7.7947e-06 0)
(1.03826 6.91956e-06 0)
(1.03826 6.00804e-06 0)
(1.03826 5.41985e-06 0)
(1.03826 4.73347e-06 0)
(1.03825 4.31188e-06 0)
(1.03825 3.87944e-06 0)
(1.03825 3.51286e-06 0)
(1.03825 3.25021e-06 0)
(1.03825 3.10215e-06 0)
(1.03825 2.84956e-06 0)
(1.03825 2.75586e-06 0)
(1.03825 2.53441e-06 0)
(1.03825 2.51188e-06 0)
(1.03825 2.36424e-06 0)
(1.03825 2.30421e-06 0)
(1.03825 2.20777e-06 0)
(1.03825 2.21871e-06 0)
(1.03825 2.17593e-06 0)
(1.03825 2.22143e-06 0)
(1.03825 2.11638e-06 0)
(1.03825 2.19932e-06 0)
(1.03825 2.15022e-06 0)
(1.03825 2.1481e-06 0)
(1.03825 2.09457e-06 0)
(1.03825 2.12637e-06 0)
(1.03825 2.06536e-06 0)
(1.03825 2.06561e-06 0)
(1.03825 1.97604e-06 0)
(1.03825 2.0441e-06 0)
(1.03825 1.99198e-06 0)
(1.03825 2.03873e-06 0)
(1.03825 1.99336e-06 0)
(1.03825 2.03899e-06 0)
(1.03825 2.02526e-06 0)
(1.03825 2.06595e-06 0)
(1.03825 2.00617e-06 0)
(1.03825 2.08974e-06 0)
(1.03825 2.07339e-06 0)
(1.03825 2.12937e-06 0)
(1.03825 2.10107e-06 0)
(1.03825 2.157e-06 0)
(1.03825 2.15561e-06 0)
(1.03825 2.22096e-06 0)
(1.03825 2.21351e-06 0)
(1.03825 2.31036e-06 0)
(1.03825 2.38641e-06 0)
(1.03825 2.52176e-06 0)
(1.03825 2.70298e-06 0)
(1.03825 3.01765e-06 0)
(1.03825 3.40502e-06 0)
(1.03825 4.06463e-06 0)
(1.03825 4.89673e-06 0)
(1.03824 6.16099e-06 0)
(1.03824 7.77948e-06 0)
(1.03824 1.00448e-05 0)
(1.03824 1.30137e-05 0)
(1.03823 1.72891e-05 0)
(1.03822 2.24658e-05 0)
(1.03821 3.26911e-05 0)
(1.03818 5.0726e-05 0)
(1.03814 0.000147139 0)
(1.03794 0.000446193 0)
(1.03774 0.00162574 0)
(1.03587 0.00331294 0)
(0.980018 0.0779742 0)
(1.0635 0.0320557 0)
(1.02937 0.00746386 0)
(1.04356 0.000447883 0)
(1.03755 -0.00048559 0)
(1.04016 0.000280717 0)
(1.03904 0.00044065 0)
(1.03943 0.000544824 0)
(1.03916 0.000465519 0)
(1.03917 0.000405929 0)
(1.03908 0.000333283 0)
(1.03905 0.000278862 0)
(1.039 0.000231236 0)
(1.03896 0.000193907 0)
(1.03893 0.00016323 0)
(1.03891 0.000138631 0)
(1.03889 0.000118473 0)
(1.03887 0.000101845 0)
(1.03885 8.79353e-05 0)
(1.03883 7.62002e-05 0)
(1.03882 6.62068e-05 0)
(1.03881 5.7541e-05 0)
(1.0388 5.01281e-05 0)
(1.03879 4.35714e-05 0)
(1.03878 3.79277e-05 0)
(1.03877 3.29855e-05 0)
(1.03877 2.86701e-05 0)
(1.03876 2.49325e-05 0)
(1.03876 2.17279e-05 0)
(1.03875 1.87707e-05 0)
(1.03875 1.63676e-05 0)
(1.03874 1.41425e-05 0)
(1.03874 1.23085e-05 0)
(1.03874 1.06707e-05 0)
(1.03874 9.24566e-06 0)
(1.03873 8.06853e-06 0)
(1.03873 7.12296e-06 0)
(1.03873 6.13461e-06 0)
(1.03873 5.48745e-06 0)
(1.03873 4.75855e-06 0)
(1.03873 4.29762e-06 0)
(1.03873 3.833e-06 0)
(1.03873 3.44691e-06 0)
(1.03873 3.15547e-06 0)
(1.03873 2.96617e-06 0)
(1.03873 2.68237e-06 0)
(1.03873 2.57769e-06 0)
(1.03872 2.34622e-06 0)
(1.03872 2.30895e-06 0)
(1.03872 2.13689e-06 0)
(1.03872 2.06006e-06 0)
(1.03872 1.97204e-06 0)
(1.03872 1.97482e-06 0)
(1.03872 1.92108e-06 0)
(1.03872 1.96905e-06 0)
(1.03872 1.86961e-06 0)
(1.03872 1.94818e-06 0)
(1.03872 1.89814e-06 0)
(1.03872 1.89634e-06 0)
(1.03872 1.84602e-06 0)
(1.03872 1.87555e-06 0)
(1.03872 1.80259e-06 0)
(1.03872 1.80817e-06 0)
(1.03872 1.72176e-06 0)
(1.03872 1.78857e-06 0)
(1.03872 1.72607e-06 0)
(1.03872 1.76561e-06 0)
(1.03872 1.72949e-06 0)
(1.03872 1.77493e-06 0)
(1.03872 1.75225e-06 0)
(1.03872 1.79756e-06 0)
(1.03872 1.7465e-06 0)
(1.03872 1.83522e-06 0)
(1.03872 1.81682e-06 0)
(1.03872 1.87061e-06 0)
(1.03872 1.8507e-06 0)
(1.03872 1.91374e-06 0)
(1.03872 1.91028e-06 0)
(1.03872 1.97509e-06 0)
(1.03872 1.9753e-06 0)
(1.03872 2.07389e-06 0)
(1.03872 2.15199e-06 0)
(1.03872 2.29298e-06 0)
(1.03872 2.49077e-06 0)
(1.03872 2.82871e-06 0)
(1.03872 3.25591e-06 0)
(1.03872 3.94662e-06 0)
(1.03872 4.83337e-06 0)
(1.03872 6.17214e-06 0)
(1.03872 7.90535e-06 0)
(1.03872 1.0349e-05 0)
(1.03872 1.36173e-05 0)
(1.03871 1.84964e-05 0)
(1.03871 2.47322e-05 0)
(1.03869 3.75809e-05 0)
(1.03867 5.9907e-05 0)
(1.03863 0.000170727 0)
(1.03847 0.000496108 0)
(1.03834 0.00179853 0)
(1.03701 0.00365056 0)
(0.977431 0.0691322 0)
(1.06097 0.0309982 0)
(1.02893 0.00758702 0)
(1.04334 0.000404167 0)
(1.03721 -0.000484385 0)
(1.03989 0.000267299 0)
(1.03878 0.000448912 0)
(1.03924 0.000552549 0)
(1.03901 0.000474908 0)
(1.03908 0.00041388 0)
(1.03902 0.000340304 0)
(1.03902 0.00028461 0)
(1.039 0.000235956 0)
(1.03899 0.000197695 0)
(1.03898 0.000166308 0)
(1.03897 0.000141141 0)
(1.03896 0.000120515 0)
(1.03895 0.000103515 0)
(1.03895 8.92726e-05 0)
(1.03894 7.72523e-05 0)
(1.03893 6.70167e-05 0)
(1.03893 5.81214e-05 0)
(1.03892 5.05106e-05 0)
(1.03892 4.37693e-05 0)
(1.03892 3.79646e-05 0)
(1.03891 3.28753e-05 0)
(1.03891 2.84017e-05 0)
(1.0389 2.45193e-05 0)
(1.0389 2.12113e-05 0)
(1.0389 1.81569e-05 0)
(1.0389 1.56681e-05 0)
(1.0389 1.33549e-05 0)
(1.03889 1.14349e-05 0)
(1.03889 9.74229e-06 0)
(1.03889 8.27389e-06 0)
(1.03889 7.05088e-06 0)
(1.03889 6.06629e-06 0)
(1.03889 5.04515e-06 0)
(1.03889 4.38557e-06 0)
(1.03889 3.65461e-06 0)
(1.03889 3.18988e-06 0)
(1.03888 2.7247e-06 0)
(1.03888 2.32566e-06 0)
(1.03888 2.01686e-06 0)
(1.03888 1.80533e-06 0)
(1.03888 1.49875e-06 0)
(1.03888 1.3902e-06 0)
(1.03888 1.14438e-06 0)
(1.03888 1.08589e-06 0)
(1.03888 8.92595e-07 0)
(1.03888 8.01222e-07 0)
(1.03888 7.22103e-07 0)
(1.03888 7.13119e-07 0)
(1.03888 6.44612e-07 0)
(1.03888 7.01347e-07 0)
(1.03888 6.10924e-07 0)
(1.03888 6.82035e-07 0)
(1.03888 6.30632e-07 0)
(1.03888 6.32359e-07 0)
(1.03888 5.85025e-07 0)
(1.03888 6.124e-07 0)
(1.03888 5.27764e-07 0)
(1.03888 5.43968e-07 0)
(1.03888 4.60396e-07 0)
(1.03888 5.21289e-07 0)
(1.03888 4.48699e-07 0)
(1.03888 4.85696e-07 0)
(1.03888 4.57898e-07 0)
(1.03888 5.01971e-07 0)
(1.03888 4.70006e-07 0)
(1.03888 5.21806e-07 0)
(1.03888 4.80011e-07 0)
(1.03888 5.67934e-07 0)
(1.03888 5.46025e-07 0)
(1.03888 6.00488e-07 0)
(1.03888 5.88148e-07 0)
(1.03888 6.57919e-07 0)
(1.03888 6.5185e-07 0)
(1.03888 7.158e-07 0)
(1.03888 7.22282e-07 0)
(1.03888 8.25052e-07 0)
(1.03888 9.05894e-07 0)
(1.03888 1.05497e-06 0)
(1.03888 1.26563e-06 0)
(1.03888 1.61943e-06 0)
(1.03888 2.05716e-06 0)
(1.03888 2.76075e-06 0)
(1.03888 3.63535e-06 0)
(1.03888 4.97432e-06 0)
(1.03888 6.74668e-06 0)
(1.03888 9.28616e-06 0)
(1.03888 1.27585e-05 0)
(1.03888 1.81189e-05 0)
(1.03887 2.52751e-05 0)
(1.03886 4.05071e-05 0)
(1.03884 6.66146e-05 0)
(1.03881 0.000188641 0)
(1.0387 0.000530405 0)
(1.03863 0.00191152 0)
(1.03784 0.00385971 0)
(0.975334 0.0610583 0)
(1.05871 0.0294626 0)
(1.02846 0.00751662 0)
(1.04304 0.000358007 0)
(1.03682 -0.000476607 0)
(1.03954 0.000248293 0)
(1.03844 0.000445748 0)
(1.03896 0.000547012 0)
(1.03878 0.000472719 0)
(1.0389 0.000411915 0)
(1.03887 0.000339269 0)
(1.0389 0.000283789 0)
(1.03891 0.000235405 0)
(1.03892 0.000197262 0)
(1.03892 0.000165977 0)
(1.03893 0.000140873 0)
(1.03893 0.000120299 0)
(1.03894 0.000103359 0)
(1.03894 8.91453e-05 0)
(1.03894 7.71379e-05 0)
(1.03894 6.69198e-05 0)
(1.03894 5.80242e-05 0)
(1.03894 5.04192e-05 0)
(1.03894 4.36721e-05 0)
(1.03894 3.78572e-05 0)
(1.03894 3.27562e-05 0)
(1.03894 2.82474e-05 0)
(1.03894 2.43225e-05 0)
(1.03894 2.09906e-05 0)
(1.03894 1.79132e-05 0)
(1.03894 1.54001e-05 0)
(1.03894 1.30554e-05 0)
(1.03894 1.1099e-05 0)
(1.03894 9.39175e-06 0)
(1.03894 7.91232e-06 0)
(1.03894 6.65904e-06 0)
(1.03894 5.64916e-06 0)
(1.03894 4.61474e-06 0)
(1.03894 3.95684e-06 0)
(1.03894 3.22555e-06 0)
(1.03894 2.75205e-06 0)
(1.03894 2.29027e-06 0)
(1.03894 1.90643e-06 0)
(1.03894 1.5981e-06 0)
(1.03894 1.38784e-06 0)
(1.03894 1.07087e-06 0)
(1.03894 9.67417e-07 0)
(1.03894 7.11158e-07 0)
(1.03894 6.35553e-07 0)
(1.03894 4.35481e-07 0)
(1.03894 3.39765e-07 0)
(1.03894 2.67278e-07 0)
(1.03894 2.45354e-07 0)
(1.03894 1.61096e-07 0)
(1.03894 2.30589e-07 0)
(1.03894 1.52948e-07 0)
(1.03894 2.13242e-07 0)
(1.03894 1.60788e-07 0)
(1.03894 1.68216e-07 0)
(1.03894 1.23276e-07 0)
(1.03893 1.48991e-07 0)
(1.03893 5.33633e-08 0)
(1.03893 8.20818e-08 0)
(1.03893 -5.36214e-10 0)
(1.03893 5.0884e-08 0)
(1.03893 -2.88852e-08 0)
(1.03893 9.82356e-09 0)
(1.03893 -1.13045e-08 0)
(1.03893 3.01712e-08 0)
(1.03893 -9.70571e-09 0)
(1.03893 4.90452e-08 0)
(1.03893 1.58014e-08 0)
(1.03893 9.74431e-08 0)
(1.03893 7.11327e-08 0)
(1.03893 1.31427e-07 0)
(1.03893 1.26101e-07 0)
(1.03893 1.99978e-07 0)
(1.03893 1.91726e-07 0)
(1.03894 2.55738e-07 0)
(1.03894 2.65958e-07 0)
(1.03894 3.692e-07 0)
(1.03894 4.46149e-07 0)
(1.03894 5.97434e-07 0)
(1.03894 8.07047e-07 0)
(1.03894 1.16207e-06 0)
(1.03894 1.57586e-06 0)
(1.03894 2.25514e-06 0)
(1.03894 3.1215e-06 0)
(1.03894 4.44946e-06 0)
(1.03894 6.23448e-06 0)
(1.03894 8.82271e-06 0)
(1.03893 1.24229e-05 0)
(1.03893 1.81376e-05 0)
(1.03893 2.60246e-05 0)
(1.03892 4.31699e-05 0)
(1.03891 7.2185e-05 0)
(1.03889 0.00020158 0)
(1.03883 0.00055006 0)
(1.03882 0.001967 0)
(1.03856 0.00394861 0)
(0.973651 0.0536318 0)
(1.05672 0.0275425 0)
(1.02804 0.00727655 0)
(1.04273 0.000312446 0)
(1.03644 -0.000461924 0)
(1.03919 0.000225564 0)
(1.0381 0.000432389 0)
(1.03868 0.000529656 0)
(1.03854 0.00046001 0)
(1.03869 0.000400888 0)
(1.0387 0.000330777 0)
(1.03876 0.000276818 0)
(1.03879 0.000229826 0)
(1.03882 0.000192698 0)
(1.03884 0.000162238 0)
(1.03886 0.000137778 0)
(1.03888 0.000117732 0)
(1.03889 0.000101242 0)
(1.0389 8.7388e-05 0)
(1.03891 7.56723e-05 0)
(1.03892 6.57071e-05 0)
(1.03892 5.70219e-05 0)
(1.03893 4.96117e-05 0)
(1.03893 4.30205e-05 0)
(1.03894 3.73288e-05 0)
(1.03894 3.23412e-05 0)
(1.03894 2.79149e-05 0)
(1.03895 2.40463e-05 0)
(1.03895 2.07638e-05 0)
(1.03895 1.77355e-05 0)
(1.03895 1.52576e-05 0)
(1.03895 1.29376e-05 0)
(1.03895 1.09944e-05 0)
(1.03895 9.3087e-06 0)
(1.03895 7.84578e-06 0)
(1.03895 6.58434e-06 0)
(1.03895 5.56943e-06 0)
(1.03895 4.54278e-06 0)
(1.03895 3.89546e-06 0)
(1.03895 3.16802e-06 0)
(1.03895 2.68471e-06 0)
(1.03895 2.22927e-06 0)
(1.03895 1.85667e-06 0)
(1.03895 1.5456e-06 0)
(1.03895 1.32926e-06 0)
(1.03895 1.01371e-06 0)
(1.03895 9.21735e-07 0)
(1.03895 6.62564e-07 0)
(1.03895 5.75695e-07 0)
(1.03895 3.84568e-07 0)
(1.03895 2.92752e-07 0)
(1.03895 2.22961e-07 0)
(1.03895 1.90096e-07 0)
(1.03895 9.36055e-08 0)
(1.03895 1.75439e-07 0)
(1.03895 1.13749e-07 0)
(1.03895 1.61306e-07 0)
(1.03895 1.09862e-07 0)
(1.03895 1.2394e-07 0)
(1.03895 7.97856e-08 0)
(1.03895 1.04742e-07 0)
(1.03895 1.67139e-09 0)
(1.03895 4.01686e-08 0)
(1.03895 -4.08726e-08 0)
(1.03895 -1.33931e-09 0)
(1.03895 -8.31299e-08 0)
(1.03895 -4.27751e-08 0)
(1.03895 -5.64539e-08 0)
(1.03895 -2.09785e-08 0)
(1.03895 -6.47852e-08 0)
(1.03895 -6.36004e-10 0)
(1.03895 -2.50092e-08 0)
(1.03895 4.71339e-08 0)
(1.03895 1.68682e-08 0)
(1.03895 8.43216e-08 0)
(1.03895 8.42682e-08 0)
(1.03895 1.57417e-07 0)
(1.03895 1.47848e-07 0)
(1.03895 2.13054e-07 0)
(1.03895 2.24405e-07 0)
(1.03895 3.22267e-07 0)
(1.03895 3.88472e-07 0)
(1.03895 5.34825e-07 0)
(1.03895 7.30112e-07 0)
(1.03895 1.07234e-06 0)
(1.03895 1.4696e-06 0)
(1.03895 2.12905e-06 0)
(1.03895 2.99086e-06 0)
(1.03895 4.29609e-06 0)
(1.03895 6.06724e-06 0)
(1.03895 8.65617e-06 0)
(1.03896 1.2301e-05 0)
(1.03896 1.8221e-05 0)
(1.03896 2.66007e-05 0)
(1.03895 4.50705e-05 0)
(1.03895 7.59667e-05 0)
(1.03893 0.000208684 0)
(1.03892 0.000554766 0)
(1.03898 0.00196682 0)
(1.03921 0.00392529 0)
(0.972302 0.0467456 0)
(1.055 0.025311 0)
(1.02767 0.00688762 0)
(1.04245 0.00026889 0)
(1.0361 -0.000440235 0)
(1.03886 0.00020044 0)
(1.03778 0.000409778 0)
(1.03841 0.000501546 0)
(1.03831 0.000437537 0)
(1.0385 0.000381382 0)
(1.03854 0.000315206 0)
(1.03862 0.000263932 0)
(1.03867 0.000219321 0)
(1.03872 0.000184 0)
(1.03875 0.000155012 0)
(1.03878 0.000131724 0)
(1.03881 0.000112634 0)
(1.03883 9.69444e-05 0)
(1.03885 8.37475e-05 0)
(1.03887 7.25779e-05 0)
(1.03888 6.30805e-05 0)
(1.03889 5.47946e-05 0)
(1.0389 4.77429e-05 0)
(1.03891 4.1449e-05 0)
(1.03892 3.60006e-05 0)
(1.03893 3.1239e-05 0)
(1.03893 2.69999e-05 0)
(1.03894 2.32785e-05 0)
(1.03894 2.01168e-05 0)
(1.03894 1.72069e-05 0)
(1.03895 1.48222e-05 0)
(1.03895 1.25839e-05 0)
(1.03895 1.0704e-05 0)
(1.03895 9.07709e-06 0)
(1.03895 7.65978e-06 0)
(1.03895 6.42239e-06 0)
(1.03896 5.43316e-06 0)
(1.03896 4.44029e-06 0)
(1.03896 3.81487e-06 0)
(1.03896 3.10648e-06 0)
(1.03896 2.62647e-06 0)
(1.03896 2.18979e-06 0)
(1.03896 1.83287e-06 0)
(1.03896 1.52226e-06 0)
(1.03896 1.30212e-06 0)
(1.03896 9.94708e-07 0)
(1.03896 9.13546e-07 0)
(1.03896 6.54471e-07 0)
(1.03896 5.55235e-07 0)
(1.03896 3.78163e-07 0)
(1.03896 2.86696e-07 0)
(1.03896 2.15852e-07 0)
(1.03896 1.76452e-07 0)
(1.03896 7.49735e-08 0)
(1.03896 1.65055e-07 0)
(1.03896 1.19968e-07 0)
(1.03896 1.55827e-07 0)
(1.03896 1.08274e-07 0)
(1.03896 1.28475e-07 0)
(1.03896 8.21229e-08 0)
(1.03896 1.06679e-07 0)
(1.03896 1.14628e-09 0)
(1.03896 4.4165e-08 0)
(1.03896 -3.3812e-08 0)
(1.03896 -5.91982e-09 0)
(1.03896 -8.46692e-08 0)
(1.03896 -4.51109e-08 0)
(1.03896 -5.16089e-08 0)
(1.03896 -2.35587e-08 0)
(1.03896 -6.69757e-08 0)
(1.03896 3.49627e-10 0)
(1.03896 -1.57958e-08 0)
(1.03896 4.69722e-08 0)
(1.03896 1.41703e-08 0)
(1.03896 8.76679e-08 0)
(1.03896 9.09567e-08 0)
(1.03896 1.5856e-07 0)
(1.03896 1.48827e-07 0)
(1.03896 2.15572e-07 0)
(1.03896 2.26094e-07 0)
(1.03896 3.16803e-07 0)
(1.03896 3.74458e-07 0)
(1.03896 5.15805e-07 0)
(1.03896 6.9594e-07 0)
(1.03896 1.01866e-06 0)
(1.03896 1.40094e-06 0)
(1.03896 2.03317e-06 0)
(1.03896 2.87209e-06 0)
(1.03896 4.12761e-06 0)
(1.03896 5.84546e-06 0)
(1.03896 8.37663e-06 0)
(1.03896 1.19711e-05 0)
(1.03897 1.79257e-05 0)
(1.03897 2.65232e-05 0)
(1.03897 4.56509e-05 0)
(1.03897 7.73222e-05 0)
(1.03897 0.00020928 0)
(1.03901 0.000544361 0)
(1.03912 0.00191359 0)
(1.03982 0.00379834 0)
(0.971221 0.0403103 0)
(1.05353 0.022827 0)
(1.02736 0.00636894 0)
(1.0422 0.000228105 0)
(1.0358 -0.000411308 0)
(1.03857 0.000174189 0)
(1.03749 0.000379067 0)
(1.03817 0.000463918 0)