/*--------------------------------*- C++ -*----------------------------------*\
| =========                 |                                                 |
| \\      /  F ield         | OpenFOAM: The Open Source CFD Toolbox           |
|  \\    /   O peration     | Version:  5.x                                   |
|   \\  /    A nd           | Web:      www.OpenFOAM.org                      |
|    \\/     M anipulation  |                                                 |
\*---------------------------------------------------------------------------*/
FoamFile
{
    version     2.0;
    format      ascii;
    class       volScalarField;
    location    "1";
    object      p;
}
// * * * * * * * * * * * * * * * * * * * * * * * * * * * * * * * * * * * * * //

dimensions      [0 2 -2 0 0 0 0];

internalField   nonuniform List<scalar> 
4000
(
426.876
413.639
409.583
404.309
399.627
394.843
390.246
385.708
381.261
376.869
372.528
368.226
363.955
359.709
355.484
351.274
347.077
342.89
338.711
334.537
330.368
326.202
322.039
317.877
313.718
309.559
305.401
301.244
297.087
292.93
288.774
284.618
280.461
276.305
272.149
267.993
263.837
259.681
255.525
251.369
247.213
243.057
238.901
234.746
230.59
226.434
222.278
218.122
213.966
209.81
205.654
201.498
197.342
193.186
189.03
184.874
180.718
176.562
172.406
168.25
164.094
159.939
155.783
151.627
147.471
143.315
139.159
135.003
130.847
126.691
122.535
118.379
114.223
110.067
105.911
101.755
97.5991
93.4432
89.2872
85.1313
80.9753
76.8194
72.6635
68.5077
64.3519
60.1961
56.0405
51.885
47.7297
43.5748
39.4205
35.267
31.1147
26.9642
22.8163
18.6717
14.5315
10.3931
6.27133
2.14865
424.429
413.549
409.433
404.121
399.437
394.651
390.054
385.516
381.068
376.675
372.334
368.032
363.761
359.515
355.289
351.08
346.882
342.695
338.515
334.342
330.172
326.007
321.843
317.682
313.522
309.364
305.206
301.048
296.892
292.735
288.578
284.422
280.266
276.11
271.954
267.798
263.642
259.486
255.33
251.174
247.018
242.862
238.706
234.55
230.394
226.238
222.082
217.926
213.77
209.615
205.459
201.303
197.147
192.991
188.835
184.679
180.523
176.367
172.211
168.055
163.899
159.743
155.587
151.431
147.275
143.119
138.963
134.807
130.651
126.496
122.34
118.184
114.028
109.872
105.716
101.56
97.4038
93.2479
89.0919
84.936
80.78
76.6241
72.4682
68.3124
64.1566
60.0008
55.8452
51.6897
47.5344
43.3795
39.2252
35.0717
30.9194
26.7689
22.621
18.4764
14.3363
10.1985
6.07796
1.96703
423.147
413.545
409.386
404.042
399.359
394.568
389.971
385.432
380.984
376.59
372.249
367.946
363.675
359.429
355.203
350.993
346.796
342.608
338.429
334.255
330.086
325.92
321.757
317.595
313.436
309.277
305.119
300.962
296.805
292.648
288.492
284.335
280.179
276.023
271.867
267.711
263.555
259.399
255.243
251.087
246.931
242.775
238.619
234.463
230.307
226.151
221.995
217.84
213.684
209.528
205.372
201.216
197.06
192.904
188.748
184.592
180.436
176.28
172.124
167.968
163.812
159.656
155.5
151.344
147.188
143.032
138.877
134.721
130.565
126.409
122.253
118.097
113.941
109.785
105.629
101.473
97.3169
93.1609
89.005
84.849
80.6931
76.5372
72.3813
68.2254
64.0696
59.9139
55.7582
51.6028
47.4475
43.2926
39.1383
34.9847
30.8324
26.6819
22.534
18.3894
14.2495
10.1117
5.99183
1.88591
422.628
413.637
409.423
404.059
399.376
394.581
389.984
385.443
380.995
376.601
372.259
367.955
363.684
359.438
355.212
351.002
346.805
342.617
338.437
334.263
330.094
325.928
321.765
317.604
313.444
309.285
305.127
300.97
296.813
292.656
288.5
284.344
280.188
276.031
271.875
267.719
263.563
259.407
255.251
251.096
246.94
242.784
238.628
234.472
230.316
226.16
222.004
217.848
213.692
209.536
205.38
201.224
197.068
192.912
188.756
184.6
180.444
176.288
172.133
167.977
163.821
159.665
155.509
151.353
147.197
143.041
138.885
134.729
130.573
126.417
122.261
118.105
113.949
109.793
105.637
101.481
97.3253
93.1693
89.0134
84.8575
80.7015
76.5456
72.3897
68.2339
64.078
59.9223
55.7666
51.6112
47.4559
43.301
39.1466
34.9931
30.8408
26.6902
22.5423
18.3977
14.2579
10.1205
5.99944
1.89071
422.29
413.748
409.487
404.106
399.419
394.62
390.023
385.481
381.033
376.638
372.296
367.993
363.721
359.475
355.249
351.039
346.841
342.654
338.474
334.3
330.131
325.965
321.802
317.64
313.48
309.322
305.164
301.006
296.849
292.693
288.536
284.38
280.224
276.068
271.912
267.756
263.6
259.444
255.288
251.132
246.976
242.82
238.664
234.508
230.352
226.196
222.04
217.884
213.728
209.572
205.416
201.261
197.105
192.949
188.793
184.637
180.481
176.325
172.169
168.013
163.857
159.701
155.545
151.389
147.233
143.077
138.921
134.765
130.609
126.453
122.297
118.141
113.986
109.83
105.674
101.518
97.3617
93.2057
89.0498
84.8939
80.7379
76.582
72.4261
68.2703
64.1144
59.9587
55.803
51.6476
47.4923
43.3374
39.183
35.0295
30.8771
26.7266
22.5787
18.4341
14.2944
10.1567
6.0348
1.92175
421.985
413.844
409.554
404.155
399.464
394.661
390.065
385.522
381.073
376.678
372.336
368.032
363.76
359.514
355.287
351.077
346.88
342.692
338.512
334.338
330.169
326.003
321.84
317.679
313.519
309.36
305.202
301.045
296.888
292.731
288.575
284.418
280.262
276.106
271.95
267.794
263.638
259.482
255.326
251.17
247.014
242.858
238.702
234.546
230.391
226.235
222.079
217.923
213.767
209.611
205.455
201.299
197.143
192.987
188.831
184.675
180.519
176.363
172.207
168.051
163.895
159.739
155.584
151.428
147.272
143.116
138.96
134.804
130.648
126.492
122.336
118.18
114.024
109.868
105.712
101.556
97.4001
93.2441
89.0882
84.9322
80.7763
76.6204
72.4645
68.3086
64.1528
59.9971
55.8414
51.6859
47.5307
43.3757
39.2214
35.0678
30.9155
26.7649
22.6169
18.4724
14.3327
10.1955
6.07252
1.95501
421.714
413.921
409.618
404.203
399.507
394.7
390.104
385.56
381.111
376.716
372.374
368.069
363.797
359.551
355.324
351.114
346.917
342.729
338.549
334.375
330.206
326.04
321.877
317.715
313.555
309.397
305.239
301.081
296.924
292.768
288.611
284.455
280.299
276.143
271.987
267.831
263.675
259.519
255.363
251.207
247.051
242.895
238.739
234.583
230.427
226.271
222.115
217.959
213.803
209.647
205.491
201.336
197.18
193.024
188.868
184.712
180.556
176.4
172.244
168.088
163.932
159.776
155.62
151.464
147.308
143.152
138.996
134.84
130.684
126.528
122.372
118.217
114.061
109.905
105.749
101.593
97.4367
93.2808
89.1248
84.9689
80.813
76.657
72.5012
68.3453
64.1895
60.0337
55.8781
51.7226
47.5673
43.4124
39.258
35.1044
30.9521
26.8015
22.6536
18.5091
14.3695
10.2328
6.10836
1.98642
421.479
413.985
409.677
404.25
399.547
394.736
390.14
385.596
381.147
376.752
372.409
368.105
363.833
359.586
355.359
351.149
346.952
342.764
338.584
334.41
330.24
326.075
321.911
317.75
313.59
309.431
305.273
301.116
296.959
292.802
288.646
284.49
280.334
276.178
272.022
267.865
263.71
259.554
255.398
251.242
247.086
242.93
238.774
234.618
230.462
226.306
222.15
217.994
213.838
209.682
205.526
201.37
197.214
193.058
188.902
184.746
180.591
176.435
172.279
168.123
163.967
159.811
155.655
151.499
147.343
143.187
139.031
134.875
130.719
126.563
122.407
118.251
114.095
109.939
105.783
101.627
97.4714
93.3154
89.1595
85.0036
80.8476
76.6917
72.5358
68.38
64.2241
60.0684
55.9127
51.7572
47.602
43.447
39.2927
35.1391
30.9867
26.8361
22.6882
18.5437
14.4042
10.2681
6.14212
2.01583
421.274
414.037
409.732
404.293
399.584
394.77
390.174
385.63
381.181
376.785
372.442
368.138
363.865
359.619
355.392
351.182
346.984
342.796
338.616
334.442
330.273
326.107
321.944
317.782
313.622
309.464
305.306
301.148
296.991
292.835
288.678
284.522
280.366
276.21
272.054
267.898
263.742
259.586
255.43
251.274
247.118
242.962
238.806
234.65
230.494
226.338
222.182
218.026
213.87
209.714
205.558
201.403
197.247
193.091
188.935
184.779
180.623
176.467
172.311
168.155
163.999
159.843
155.687
151.531
147.375
143.219
139.063
134.907
130.751
126.595
122.439
118.283
114.128
109.972
105.816
101.66
97.5037
93.3477
89.1918
85.0359
80.8799
76.724
72.5681
68.4123
64.2564
60.1007
55.945
51.7895
47.6343
43.4793
39.3249
35.1714
31.019
26.8684
22.7204
18.5761
14.4366
10.3012
6.17358
2.04308
421.095
414.079
409.782
404.334
399.618
394.8
390.205
385.66
381.211
376.815
372.472
368.168
363.895
359.648
355.422
351.211
347.014
342.826
338.646
334.472
330.302
326.137
321.973
317.812
313.652
309.493
305.335
301.178
297.021
292.864
288.708
284.552
280.396
276.24
272.083
267.927
263.771
259.615
255.46
251.304
247.148
242.992
238.836
234.68
230.524
226.368
222.212
218.056
213.9
209.744
205.588
201.432
197.276
193.12
188.964
184.808
180.652
176.497
172.341
168.185
164.029
159.873
155.717
151.561
147.405
143.249
139.093
134.937
130.781
126.625
122.469
118.313
114.157
110.001
105.845
101.689
97.5334
93.3774
89.2215
85.0655
80.9096
76.7537
72.5978
68.4419
64.2861
60.1304
55.9747
51.8192
47.6639
43.509
39.3546
35.201
31.0486
26.898
22.75
18.6057
14.4663
10.3317
6.20252
2.06801
420.938
414.112
409.828
404.371
399.649
394.828
390.233
385.688
381.239
376.843
372.5
368.195
363.923
359.676
355.449
351.239
347.041
342.853
338.673
334.499
330.329
326.163
322
317.839
313.679
309.52
305.362
301.205
297.048
292.891
288.735
284.579
280.423
276.266
272.11
267.954
263.798
259.642
255.487
251.331
247.175
243.019
238.863
234.707
230.551
226.395
222.239
218.083
213.927
209.771
205.615
201.459
197.303
193.147
188.991
184.835
180.679
176.524
172.368
168.212
164.056
159.9
155.744
151.588
147.432
143.276
139.12
134.964
130.808
126.652
122.496
118.34
114.184
110.028
105.872
101.716
97.5603
93.4044
89.2484
85.0925
80.9366
76.7807
72.6248
68.4689
64.3131
60.1573
56.0017
51.8462
47.6909
43.536
39.3816
35.228
31.0756
26.925
22.777
18.6328
14.4933
10.3595
6.22886
2.09061
420.803
414.139
409.868
404.405
399.676
394.853
390.258
385.713
381.264
376.868
372.525
368.22
363.947
359.7
355.474
351.263
347.065
342.877
338.697
334.523
330.354
326.188
322.024
317.863
313.703
309.545
305.387
301.229
297.072
292.916
288.759
284.603
280.447
276.291
272.135
267.979
263.823
259.667
255.511
251.355
247.199
243.043
238.887
234.731
230.575
226.419
222.263
218.107
213.951
209.795
205.639
201.483
197.328
193.172
189.016
184.86
180.704
176.548
172.392
168.236
164.08
159.924
155.768
151.612
147.456
143.3
139.144
134.988
130.832
126.676
122.52
118.364
114.208
110.052
105.897
101.741
97.5846
93.4287
89.2727
85.1168
80.9609
76.8049
72.6491
68.4932
64.3374
60.1816
56.026
51.8704
47.7152
43.5602
39.4058
35.2522
31.0998
26.9492
22.8012
18.6571
14.5177
10.3847
6.25259
2.11088
420.686
414.16
409.904
404.436
399.701
394.875
390.28
385.735
381.286
376.89
372.547
368.242
363.969
359.722
355.495
351.285
347.087
342.899
338.719
334.545
330.375
326.209
322.046
317.885
313.725
309.566
305.408
301.251
297.094
292.937
288.781
284.625
280.468
276.312
272.156
268
263.844
259.688
255.532
251.376
247.22
243.065
238.909
234.753
230.597
226.441
222.285
218.129
213.973
209.817
205.661
201.505
197.349
193.193
189.037
184.881
180.725
176.569
172.413
168.258
164.102
159.946
155.79
151.634
147.478
143.322
139.166
135.01
130.854
126.698
122.542
118.386
114.23
110.074
105.918
101.762
97.6062
93.4503
89.2943
85.1384
80.9824
76.8265
72.6706
68.5148
64.359
60.2032
56.0475
51.892
47.7368
43.5818
39.4274
35.2738
31.1214
26.9708
22.8228
18.6787
14.5394
10.4071
6.27371
2.12886
420.587
414.177
409.935
404.463
399.722
394.894
390.3
385.754
381.305
376.909
372.566
368.261
363.988
359.741
355.514
351.304
347.106
342.918
338.738
334.564
330.394
326.228
322.065
317.904
313.744
309.585
305.427
301.27
297.113
292.956
288.8
284.643
280.487
276.331
272.175
268.019
263.863
259.707
255.551
251.395
247.239
243.083
238.927
234.771
230.616
226.46
222.304
218.148
213.992
209.836
205.68
201.524
197.368
193.212
189.056
184.9
180.744
176.588
172.432
168.276
164.12
159.965
155.809
151.653
147.497
143.341
139.185
135.029
130.873
126.717
122.561
118.405
114.249
110.093
105.937
101.781
97.6251
93.4691
89.3132
85.1573
81.0013
76.8454
72.6895
68.5337
64.3778
60.2221
56.0664
51.9109
47.7556
43.6007
39.4463
35.2927
31.1403
26.9897
22.8416
18.6976
14.5583
10.4268
6.29221
2.14456
420.504
414.19
409.961
404.486
399.74
394.911
390.316
385.77
381.322
376.925
372.582
368.277
364.005
359.757
355.531
351.32
347.122
342.934
338.754
334.58
330.41
326.244
322.081
317.92
313.76
309.601
305.443
301.286
297.129
292.972
288.816
284.66
280.504
276.347
272.191
268.035
263.879
259.723
255.567
251.411
247.256
243.1
238.944
234.788
230.632
226.476
222.32
218.164
214.008
209.852
205.696
201.54
197.384
193.228
189.072
184.916
180.76
176.604
172.449
168.293
164.137
159.981
155.825
151.669
147.513
143.357
139.201
135.045
130.889
126.733
122.577
118.421
114.265
110.109
105.953
101.797
97.6413
93.4853
89.3294
85.1735
81.0175
76.8616
72.7057
68.5499
64.394
60.2383
56.0826
51.9271
47.7718
43.6169
39.4625
35.3089
31.1565
27.0059
22.8578
18.7139
14.5746
10.4437
6.30808
2.158
420.436
414.2
409.983
404.505
399.755
394.924
390.33
385.784
381.336
376.939
372.596
368.291
364.018
359.771
355.544
351.333
347.135
342.948
338.767
334.593
330.424
326.258
322.095
317.933
313.773
309.615
305.457
301.299
297.142
292.986
288.829
284.673
280.517
276.361
272.205
268.049
263.893
259.737
255.581
251.425
247.269
243.113
238.957
234.801
230.645
226.489
222.333
218.177
214.021
209.866
205.71
201.554
197.398
193.242
189.086
184.93
180.774
176.618
172.462
168.306
164.15
159.994
155.838
151.682
147.526
143.37
139.214
135.058
130.902
126.747
122.591
118.435
114.279
110.123
105.967
101.811
97.6548
93.4988
89.3429
85.1869
81.031
76.8751
72.7192
68.5633
64.4075
60.2518
56.0961
51.9406
47.7853
43.6304
39.476
35.3224
31.1699
27.0193
22.8712
18.7274
14.5881
10.4578
6.32132
2.16918
420.383
414.207
410.001
404.521
399.767
394.935
390.341
385.795
381.347
376.95
372.607
368.302
364.029
359.782
355.555
351.344
347.146
342.958
338.778
334.604
330.435
326.269
322.105
317.944
313.784
309.625
305.468
301.31
297.153
292.997
288.84
284.684
280.528
276.372
272.216
268.06
263.904
259.748
255.592
251.436
247.28
243.124
238.968
234.812
230.656
226.5
222.344
218.188
214.032
209.876
205.72
201.564
197.408
193.253
189.097
184.941
180.785
176.629
172.473
168.317
164.161
160.005
155.849
151.693
147.537
143.381
139.225
135.069
130.913
126.757
122.601
118.445
114.289
110.133
105.978
101.822
97.6656
93.5096
89.3537
85.1977
81.0418
76.8859
72.73
68.5741
64.4183
60.2626
56.1069
51.9514
47.7961
43.6412
39.4868
35.3331
31.1807
27.0301
22.882
18.7382
14.5989
10.4692
6.33191
2.17812
420.344
414.212
410.014
404.533
399.776
394.943
390.349
385.803
381.355
376.958
372.615
368.31
364.037
359.79
355.563
351.352
347.154
342.966
338.786
334.612
330.443
326.277
322.113
317.952
313.792
309.634
305.476
301.318
297.161
293.005
288.848
284.692
280.536
276.38
272.224
268.068
263.912
259.756
255.6
251.444
247.288
243.132
238.976
234.82
230.664
226.508
222.352
218.196
214.04
209.884
205.728
201.573
197.417
193.261
189.105
184.949
180.793
176.637
172.481
168.325
164.169
160.013
155.857
151.701
147.545
143.389
139.233
135.077
130.921
126.765
122.609
118.453
114.298
110.142
105.986
101.83
97.6737
93.5177
89.3618
85.2058
81.0499
76.894
72.7381
68.5822
64.4264
60.2707
56.115
51.9595
47.8042
43.6493
39.4948
35.3412
31.1888
27.0382
22.8901
18.7463
14.6071
10.4777
6.33986
2.18482
420.318
414.216
410.022
404.541
399.783
394.949
390.354
385.809
381.36
376.964
372.621
368.315
364.043
359.795
355.568
351.358
347.16
342.972
338.792
334.618
330.448
326.282
322.119
317.958
313.798
309.639
305.481
301.324
297.167
293.01
288.854
284.697
280.541
276.385
272.229
268.073
263.917
259.761
255.605
251.449
247.293
243.137
238.981
234.825
230.67
226.514
222.358
218.202
214.046
209.89
205.734
201.578
197.422
193.266
189.11
184.954
180.798
176.642
172.486
168.33
164.174
160.018
155.863
151.707
147.551
143.395
139.239
135.083
130.927
126.771
122.615
118.459
114.303
110.147
105.991
101.835
97.6791
93.5231
89.3672
85.2112
81.0553
76.8994
72.7435
68.5876
64.4318
60.2761
56.1204
51.9649
47.8096
43.6547
39.5002
35.3466
31.1942
27.0436
22.8955
18.7517
14.6125
10.4833
6.34517
2.18928
420.305
414.217
410.027
404.545
399.786
394.951
390.357
385.811
381.363
376.967
372.623
368.318
364.045
359.798
355.571
351.36
347.163
342.975
338.794
334.62
330.451
326.285
322.122
317.96
313.8
309.642
305.484
301.326
297.169
293.013
288.856
284.7
280.544
276.388
272.232
268.076
263.92
259.764
255.608
251.452
247.296
243.14
238.984
234.828
230.672
226.516
222.36
218.204
214.048
209.892
205.737
201.581
197.425
193.269
189.113
184.957
180.801
176.645
172.489
168.333
164.177
160.021
155.865
151.709
147.553
143.397
139.241
135.085
130.929
126.774
122.618
118.462
114.306
110.15
105.994
101.838
97.6818
93.5258
89.3699
85.2139
81.058
76.9021
72.7462
68.5903
64.4345
60.2788
56.1231
51.9676
47.8123
43.6574
39.5029
35.3493
31.1969
27.0463
22.8982
18.7544
14.6152
10.4862
6.34782
2.19151
420.305
414.217
410.027
404.545
399.786
394.951
390.357
385.811
381.363
376.967
372.623
368.318
364.045
359.798
355.571
351.36
347.163
342.975
338.794
334.62
330.451
326.285
322.122
317.96
313.8
309.642
305.484
301.326
297.169
293.013
288.856
284.7
280.544
276.388
272.232
268.076
263.92
259.764
255.608
251.452
247.296
243.14
238.984
234.828
230.672
226.516
222.36
218.204
214.048
209.892
205.737
201.581
197.425
193.269
189.113
184.957
180.801
176.645
172.489
168.333
164.177
160.021
155.865
151.709
147.553
143.397
139.241
135.085
130.929
126.774
122.618
118.462
114.306
110.15
105.994
101.838
97.6818
93.5258
89.3699
85.2139
81.058
76.9021
72.7462
68.5903
64.4345
60.2788
56.1231
51.9676
47.8123
43.6574
39.5029
35.3493
31.1969
27.0463
22.8982
18.7544
14.6152
10.4862
6.34782
2.19151
420.318
414.216
410.022
404.541
399.783
394.949
390.354
385.809
381.36
376.964
372.621
368.315
364.043
359.795
355.568
351.358
347.16
342.972
338.792
334.618
330.448
326.282
322.119
317.958
313.798
309.639
305.481
301.324
297.167
293.01
288.854
284.697
280.541
276.385
272.229
268.073
263.917
259.761
255.605
251.449
247.293
243.137
238.981
234.825
230.67
226.514
222.358
218.202
214.046
209.89
205.734
201.578
197.422
193.266
189.11
184.954
180.798
176.642
172.486
168.33
164.174
160.019
155.863
151.707
147.551
143.395
139.239
135.083
130.927
126.771
122.615
118.459
114.303
110.147
105.991
101.835
97.6791
93.5231
89.3672
85.2112
81.0553
76.8994
72.7435
68.5876
64.4318
60.2761
56.1204
51.9649
47.8096
43.6547
39.5002
35.3466
31.1942
27.0436
22.8955
18.7517
14.6125
10.4833
6.34516
2.18928
420.344
414.212
410.014
404.533
399.776
394.943
390.349
385.803
381.355
376.958
372.615
368.31
364.037
359.79
355.563
351.352
347.154
342.966
338.786
334.612
330.443
326.277
322.113
317.952
313.792
309.634
305.476
301.318
297.161
293.005
288.848
284.692
280.536
276.38
272.224
268.068
263.912
259.756
255.6
251.444
247.288
243.132
238.976
234.82
230.664
226.508
222.352
218.196
214.04
209.884
205.728
201.573
197.417
193.261
189.105
184.949
180.793
176.637
172.481
168.325
164.169
160.013
155.857
151.701
147.545
143.389
139.233
135.077
130.921
126.765
122.609
118.453
114.298
110.142
105.986
101.83
97.6737
93.5177
89.3618
85.2058
81.0499
76.894
72.7381
68.5822
64.4264
60.2707
56.115
51.9595
47.8042
43.6493
39.4948
35.3412
31.1888
27.0382
22.8901
18.7463
14.6071
10.4776
6.33986
2.18482
420.383
414.207
410.001
404.521
399.767
394.935
390.341
385.795
381.347
376.95
372.607
368.302
364.029
359.782
355.555
351.344
347.146
342.958
338.778
334.604
330.435
326.269
322.105
317.944
313.784
309.625
305.468
301.31
297.153
292.997
288.84
284.684
280.528
276.372
272.216
268.06
263.904
259.748
255.592
251.436
247.28
243.124
238.968
234.812
230.656
226.5
222.344
218.188
214.032
209.876
205.72
201.564
197.408
193.253
189.097
184.941
180.785
176.629
172.473
168.317
164.161
160.005
155.849
151.693
147.537
143.381
139.225
135.069
130.913
126.757
122.601
118.445
114.289
110.133
105.978
101.822
97.6656
93.5096
89.3537
85.1977
81.0418
76.8859
72.73
68.5741
64.4183
60.2626
56.1069
51.9514
47.7961
43.6412
39.4867
35.3331
31.1807
27.0301
22.882
18.7382
14.5989
10.4691
6.33191
2.17812
420.436
414.2
409.983
404.505
399.755
394.924
390.33
385.784
381.336
376.939
372.596
368.291
364.018
359.771
355.544
351.333
347.135
342.948
338.767
334.593
330.424
326.258
322.095
317.933
313.773
309.615
305.457
301.299
297.142
292.986
288.829
284.673
280.517
276.361
272.205
268.049
263.893
259.737
255.581
251.425
247.269
243.113
238.957
234.801
230.645
226.489
222.333
218.177
214.021
209.866
205.71
201.554
197.398
193.242
189.086
184.93
180.774
176.618
172.462
168.306
164.15
159.994
155.838
151.682
147.526
143.37
139.214
135.058
130.902
126.747
122.591
118.435
114.279
110.123
105.967
101.811
97.6548
93.4988
89.3429
85.187
81.031
76.8751
72.7192
68.5633
64.4075
60.2518
56.0961
51.9406
47.7853
43.6304
39.476
35.3223
31.1699
27.0193
22.8712
18.7274
14.5881
10.4578
6.32131
2.16918
420.504
414.19
409.961
404.486
399.74
394.911
390.316
385.77
381.322
376.925
372.582
368.277
364.005
359.757
355.53
351.32
347.122
342.934
338.754
334.58
330.41
326.244
322.081
317.92
313.76
309.601
305.443
301.286
297.129
292.972
288.816
284.66
280.503
276.347
272.191
268.035
263.879
259.723
255.567
251.411
247.256
243.1
238.944
234.788
230.632
226.476
222.32
218.164
214.008
209.852
205.696
201.54
197.384
193.228
189.072
184.916
180.76
176.605
172.449
168.293
164.137
159.981
155.825
151.669
147.513
143.357
139.201
135.045
130.889
126.733
122.577
118.421
114.265
110.109
105.953
101.797
97.6413
93.4853
89.3294
85.1735
81.0175
76.8616
72.7057
68.5499
64.394
60.2383
56.0826
51.9271
47.7718
43.6169
39.4625
35.3089
31.1564
27.0058
22.8578
18.7138
14.5745
10.4437
6.30807
2.15799
420.587
414.177
409.935
404.463
399.722
394.894
390.3
385.754
381.305
376.909
372.566
368.261
363.988
359.741
355.514
351.304
347.106
342.918
338.738
334.564
330.394
326.228
322.065
317.904
313.744
309.585
305.427
301.27
297.113
292.956
288.8
284.643
280.487
276.331
272.175
268.019
263.863
259.707
255.551
251.395
247.239
243.083
238.927
234.771
230.616
226.46
222.304
218.148
213.992
209.836
205.68
201.524
197.368
193.212
189.056
184.9
180.744
176.588
172.432
168.276
164.12
159.965
155.809
151.653
147.497
143.341
139.185
135.029
130.873
126.717
122.561
118.405
114.249
110.093
105.937
101.781
97.6251
93.4692
89.3132
85.1573
81.0013
76.8454
72.6895
68.5337
64.3778
60.2221
56.0664
51.9109
47.7556
43.6007
39.4463
35.2927
31.1402
26.9897
22.8416
18.6976
14.5583
10.4268
6.2922
2.14456
420.686
414.16
409.904
404.436
399.701
394.875
390.28
385.735
381.286
376.89
372.547
368.242
363.969
359.722
355.495
351.285
347.087
342.899
338.719
334.545
330.375
326.209
322.046
317.885
313.725
309.566
305.408
301.251
297.094
292.937
288.781
284.625
280.468
276.312
272.156
268
263.844
259.688
255.532
251.376
247.22
243.064
238.909
234.753
230.597
226.441
222.285
218.129
213.973
209.817
205.661
201.505
197.349
193.193
189.037
184.881
180.725
176.569
172.414
168.258
164.102
159.946
155.79
151.634
147.478
143.322
139.166
135.01
130.854
126.698
122.542
118.386
114.23
110.074
105.918
101.762
97.6062
93.4503
89.2943
85.1384
80.9824
76.8265
72.6706
68.5148
64.359
60.2032
56.0475
51.892
47.7367
43.5818
39.4274
35.2738
31.1214
26.9708
22.8227
18.6787
14.5393
10.4071
6.2737
2.12886
420.803
414.139
409.868
404.405
399.676
394.853
390.258
385.713
381.264
376.868
372.525
368.22
363.947
359.7
355.474
351.263
347.065
342.877
338.697
334.523
330.354
326.188
322.024
317.863
313.703
309.545
305.387
301.229
297.072
292.916
288.759
284.603
280.447
276.291
272.135
267.979
263.823
259.667
255.511
251.355
247.199
243.043
238.887
234.731
230.575
226.419
222.263
218.107
213.951
209.795
205.639
201.483
197.328
193.172
189.016
184.86
180.704
176.548
172.392
168.236
164.08
159.924
155.768
151.612
147.456
143.3
139.144
134.988
130.832
126.676
122.52
118.364
114.208
110.053
105.897
101.741
97.5846
93.4287
89.2727
85.1168
80.9609
76.8049
72.6491
68.4932
64.3374
60.1816
56.0259
51.8704
47.7152
43.5602
39.4058
35.2522
31.0998
26.9492
22.8012
18.657
14.5177
10.3846
6.25258
2.11088
420.938
414.112
409.828
404.371
399.649
394.828
390.233
385.688
381.239
376.843
372.5
368.195
363.923
359.676
355.449
351.239
347.041
342.853
338.673
334.499
330.329
326.163
322
317.839
313.679
309.52
305.362
301.205
297.048
292.891
288.735
284.579
280.423
276.266
272.11
267.954
263.798
259.642
255.486
251.33
247.175
243.019
238.863
234.707
230.551
226.395
222.239
218.083
213.927
209.771
205.615
201.459
197.303
193.147
188.991
184.835
180.68
176.524
172.368
168.212
164.056
159.9
155.744
151.588
147.432
143.276
139.12
134.964
130.808
126.652
122.496
118.34
114.184
110.028
105.872
101.716
97.5604
93.4044
89.2484
85.0925
80.9366
76.7807
72.6248
68.4689
64.3131
60.1573
56.0017
51.8462
47.6909
43.5359
39.3815
35.2279
31.0755
26.9249
22.7769
18.6327
14.4933
10.3595
6.22885
2.0906
421.095
414.079
409.782
404.334
399.618
394.8
390.205
385.66
381.211
376.815
372.472
368.168
363.895
359.648
355.422
351.211
347.014
342.826
338.646
334.472
330.302
326.136
321.973
317.812
313.652
309.493
305.335
301.178
297.021
292.864
288.708
284.552
280.396
276.239
272.083
267.927
263.771
259.615
255.459
251.304
247.148
242.992
238.836
234.68
230.524
226.368
222.212
218.056
213.9
209.744
205.588
201.432
197.276
193.12
188.964
184.808
180.653
176.497
172.341
168.185
164.029
159.873
155.717
151.561
147.405
143.249
139.093
134.937
130.781
126.625
122.469
118.313
114.157
110.001
105.845
101.689
97.5334
93.3774
89.2215
85.0655
80.9096
76.7537
72.5978
68.4419
64.2861
60.1304
55.9747
51.8192
47.6639
43.509
39.3546
35.201
31.0486
26.898
22.75
18.6057
14.4663
10.3316
6.2025
2.06801
421.274
414.037
409.732
404.293
399.584
394.77
390.174
385.63
381.181
376.785
372.442
368.138
363.865
359.618
355.392
351.182
346.984
342.796
338.616
334.442
330.273
326.107
321.944
317.782
313.622
309.464
305.306
301.148
296.991
292.835
288.678
284.522
280.366
276.21
272.054
267.898
263.742
259.586
255.43
251.274
247.118
242.962
238.806
234.65
230.494
226.338
222.182
218.026
213.87
209.714
205.558
201.403
197.247
193.091
188.935
184.779
180.623
176.467
172.311
168.155
163.999
159.843
155.687
151.531
147.375
143.219
139.063
134.907
130.751
126.595
122.439
118.284
114.128
109.972
105.816
101.66
97.5037
93.3478
89.1918
85.0359
80.8799
76.724
72.5681
68.4123
64.2564
60.1007
55.945
51.7895
47.6342
43.4793
39.3249
35.1713
31.0189
26.8683
22.7204
18.576
14.4365
10.3012
6.17356
2.04307
421.479
413.985
409.677
404.25
399.547
394.736
390.14
385.596
381.147
376.752
372.409
368.105
363.833
359.586
355.359
351.149
346.951
342.764
338.584
334.41
330.24
326.074
321.911
317.75
313.59
309.431
305.273
301.116
296.959
292.802
288.646
284.49
280.334
276.177
272.021
267.865
263.709
259.553
255.398
251.242
247.086
242.93
238.774
234.618
230.462
226.306
222.15
217.994
213.838
209.682
205.526
201.37
197.214
193.058
188.902
184.747
180.591
176.435
172.279
168.123
163.967
159.811
155.655
151.499
147.343
143.187
139.031
134.875
130.719
126.563
122.407
118.251
114.095
109.939
105.783
101.627
97.4714
93.3155
89.1595
85.0036
80.8476
76.6917
72.5358
68.38
64.2241
60.0684
55.9127
51.7572
47.602
43.447
39.2926
35.139
30.9867
26.8361
22.6881
18.5437
14.4042
10.2681
6.1421
2.01582
421.714
413.921
409.618
404.203
399.507
394.7
390.104
385.56
381.111
376.716
372.374
368.069
363.797
359.551
355.324
351.114
346.917
342.729
338.549
334.375
330.206
326.04
321.877
317.715
313.555
309.397
305.239
301.081
296.924
292.768
288.611
284.455
280.299
276.143
271.987
267.831
263.675
259.519
255.363
251.207
247.051
242.895
238.739
234.583
230.427
226.271
222.115
217.959
213.803
209.647
205.492
201.336
197.18
193.024
188.868
184.712
180.556
176.4
172.244
168.088
163.932
159.776
155.62
151.464
147.308
143.152
138.996
134.84
130.684
126.528
122.372
118.217
114.061
109.905
105.749
101.593
97.4367
93.2808
89.1248
84.9689
80.813
76.657
72.5012
68.3453
64.1895
60.0337
55.8781
51.7226
47.5673
43.4124
39.258
35.1044
30.952
26.8015
22.6535
18.509
14.3694
10.2328
6.10833
1.98642
421.985
413.844
409.554
404.155
399.464
394.661
390.065
385.522
381.073
376.678
372.336
368.032
363.76
359.514
355.287
351.077
346.88
342.692
338.512
334.338
330.169
326.003
321.84
317.679
313.519
309.36
305.202
301.045
296.888
292.731
288.575
284.418
280.262
276.106
271.95
267.794
263.638
259.482
255.326
251.17
247.014
242.858
238.702
234.546
230.39
226.235
222.079
217.923
213.767
209.611
205.455
201.299
197.143
192.987
188.831
184.675
180.519
176.363
172.207
168.051
163.895
159.74
155.584
151.428
147.272
143.116
138.96
134.804
130.648
126.492
122.336
118.18
114.024
109.868
105.712
101.556
97.4001
93.2441
89.0882
84.9322
80.7763
76.6204
72.4645
68.3086
64.1528
59.9971
55.8414
51.6859
47.5306
43.3757
39.2213
35.0678
30.9154
26.7649
22.6169
18.4724
14.3327
10.1955
6.07249
1.955
422.29
413.748
409.487
404.106
399.419
394.62
390.023
385.481
381.033
376.638
372.296
367.993
363.721
359.475
355.249
351.039
346.841
342.654
338.474
334.3
330.131
325.965
321.801
317.64
313.48
309.322
305.164
301.006
296.849
292.693
288.536
284.38
280.224
276.068
271.912
267.756
263.6
259.444
255.288
251.132
246.976
242.82
238.664
234.508
230.352
226.196
222.04
217.884
213.728
209.572
205.416
201.261
197.105
192.949
188.793
184.637
180.481
176.325
172.169
168.013
163.857
159.701
155.545
151.389
147.233
143.077
138.921
134.765
130.609
126.453
122.297
118.142
113.986
109.83
105.674
101.518
97.3617
93.2058
89.0498
84.8939
80.7379
76.582
72.4261
68.2703
64.1144
59.9587
55.803
51.6475
47.4923
43.3374
39.183
35.0294
30.8771
26.7265
22.5786
18.4341
14.2943
10.1567
6.03478
1.92174
422.628
413.637
409.423
404.059
399.376
394.581
389.984
385.443
380.995
376.601
372.259
367.955
363.684
359.438
355.212
351.002
346.805
342.617
338.437
334.263
330.094
325.928
321.765
317.604
313.444
309.285
305.127
300.97
296.813
292.656
288.5
284.344
280.187
276.031
271.875
267.719
263.563
259.407
255.251
251.095
246.939
242.784
238.628
234.472
230.316
226.16
222.004
217.848
213.692
209.536
205.38
201.224
197.068
192.912
188.756
184.6
180.444
176.289
172.133
167.977
163.821
159.665
155.509
151.353
147.197
143.041
138.885
134.729
130.573
126.417
122.261
118.105
113.949
109.793
105.637
101.481
97.3253
93.1694
89.0134
84.8575
80.7015
76.5456
72.3897
68.2339
64.078
59.9223
55.7666
51.6112
47.4559
43.301
39.1466
34.9931
30.8407
26.6902
22.5423
18.3977
14.2579