/*--------------------------------*- C++ -*----------------------------------*\
| =========                 |                                                 |
| \\      /  F ield         | OpenFOAM: The Open Source CFD Toolbox           |
|  \\    /   O peration     | Version:  5.x                                   |
|   \\  /    A nd           | Web:      www.OpenFOAM.org                      |
|    \\/     M anipulation  |                                                 |
\*---------------------------------------------------------------------------*/
FoamFile
{
    version     2.0;
    format      ascii;
    class       volScalarField;
    location    "1";
    object      pB;
}
// * * * * * * * * * * * * * * * * * * * * * * * * * * * * * * * * * * * * * //

dimensions      [1 1 -3 0 0 -1 0];

internalField   nonuniform List<scalar> 
4000
(
24.0944
52.2621
66.5015
70.7636
69.3889
64.3784
57.63
50.2224
42.8944
36.0386
29.8673
24.4583
19.8147
15.8928
12.6251
9.93354
7.73865
5.96465
4.54227
3.41016
2.5151
1.81185
1.26246
0.835589
0.505539
0.251561
0.056935
-0.0915799
-0.204514
-0.290068
-0.3547
-0.403355
-0.43991
-0.467275
-0.487745
-0.502992
-0.514354
-0.522777
-0.529032
-0.533643
-0.537055
-0.539555
-0.541399
-0.542736
-0.543728
-0.544433
-0.544954
-0.545315
-0.545587
-0.545764
-0.545898
-0.545973
-0.546033
-0.546052
-0.546068
-0.546055
-0.546047
-0.546018
-0.545992
-0.545952
-0.545918
-0.54587
-0.545824
-0.545767
-0.545715
-0.545644
-0.545573
-0.54548
-0.545377
-0.545234
-0.545066
-0.544839
-0.544552
-0.544164
-0.543657
-0.542971
-0.542058
-0.540829
-0.539176
-0.53696
-0.533992
-0.530022
-0.524737
-0.517725
-0.508475
-0.49636
-0.480637
-0.460444
-0.434888
-0.403108
-0.36454
-0.319264
-0.268693
-0.216572
-0.170568
-0.14384
-0.154934
-0.218976
-0.312596
-0.304273
25.9539
52.2783
65.8969
70.116
68.7771
63.8562
57.1922
49.8638
42.6036
35.8064
29.6846
24.3172
19.7082
15.8147
12.5702
9.89728
7.71729
5.95508
4.54197
3.41707
2.52759
1.82863
1.28252
0.858134
0.529961
0.277396
0.0838283
-0.0638954
-0.176241
-0.261358
-0.325666
-0.374082
-0.41046
-0.437695
-0.458068
-0.473244
-0.484553
-0.492936
-0.499162
-0.503751
-0.507148
-0.509636
-0.511473
-0.512803
-0.513791
-0.514493
-0.515013
-0.515371
-0.515641
-0.515817
-0.515949
-0.516023
-0.516083
-0.516101
-0.516118
-0.516104
-0.516096
-0.516066
-0.516042
-0.516001
-0.515967
-0.515919
-0.515875
-0.515817
-0.515766
-0.515695
-0.515625
-0.515532
-0.515429
-0.515287
-0.51512
-0.514893
-0.514608
-0.514221
-0.513716
-0.513034
-0.512125
-0.510901
-0.509258
-0.507051
-0.5041
-0.50015
-0.494893
-0.487919
-0.478723
-0.46668
-0.451057
-0.431
-0.405629
-0.3741
-0.335867
-0.291025
-0.24099
-0.189449
-0.14385
-0.116674
-0.124784
-0.1797
-0.255855
-0.241891
27.078
52.1882
65.0667
69.1651
67.8434
63.0281
56.4798
49.2667
42.1107
35.4064
29.3651
24.0667
19.5159
15.6709
12.4662
9.82583
7.67207
5.93083
4.53433
3.42251
2.54323
1.85219
1.31216
0.892449
0.567837
0.317973
0.12645
-0.0197336
-0.130924
-0.215174
-0.278837
-0.326771
-0.362792
-0.38976
-0.409936
-0.424965
-0.436164
-0.444466
-0.450632
-0.455176
-0.458541
-0.461004
-0.462825
-0.464142
-0.46512
-0.465815
-0.46633
-0.466685
-0.466951
-0.467124
-0.467254
-0.467327
-0.467384
-0.467402
-0.467418
-0.467405
-0.467396
-0.467366
-0.467343
-0.467302
-0.467268
-0.46722
-0.467178
-0.46712
-0.467068
-0.466999
-0.46693
-0.466837
-0.466735
-0.466595
-0.466429
-0.466204
-0.465921
-0.465537
-0.465037
-0.46436
-0.463461
-0.462248
-0.460623
-0.458438
-0.455517
-0.451608
-0.446408
-0.439508
-0.430414
-0.418506
-0.403065
-0.383251
-0.358202
-0.327095
-0.289405
-0.245235
-0.195977
-0.145182
-0.0999007
-0.0715494
-0.0747262
-0.116754
-0.172283
-0.151768
27.2134
51.7106
63.8649
67.784
66.4732
61.7891
55.3981
48.3468
41.3409
34.7721
28.8496
23.6537
19.1898
15.4175
12.273
9.6818
7.56784
5.85852
4.48741
3.39562
2.53203
1.85319
1.3226
0.91014
0.591075
0.345438
0.157121
0.0133611
-0.0960043
-0.178885
-0.241522
-0.28869
-0.32414
-0.350684
-0.370544
-0.385337
-0.396362
-0.404532
-0.410602
-0.415074
-0.418386
-0.42081
-0.422604
-0.423902
-0.424863
-0.425547
-0.426055
-0.426403
-0.426664
-0.426832
-0.426959
-0.427029
-0.427084
-0.427101
-0.427116
-0.427103
-0.427093
-0.427063
-0.427041
-0.427
-0.426966
-0.426919
-0.426878
-0.42682
-0.426769
-0.426701
-0.426634
-0.426541
-0.426441
-0.426303
-0.426139
-0.425917
-0.425637
-0.425259
-0.424766
-0.4241
-0.423216
-0.422021
-0.420423
-0.418273
-0.415401
-0.411556
-0.406443
-0.39966
-0.390723
-0.379025
-0.363863
-0.34442
-0.319854
-0.289373
-0.252473
-0.209262
-0.161073
-0.111238
-0.0662132
-0.0359521
-0.0322263
-0.0578108
-0.0895369
-0.0592755
26.5983
50.7414
62.2668
65.9806
64.6823
60.1522
53.9572
47.1112
40.2995
33.9074
28.141
23.0801
18.7311
15.0553
11.9907
9.46491
7.40402
5.73735
4.40023
3.33531
2.4928
1.83041
1.31256
0.90991
0.598368
0.358473
0.174523
0.0340686
-0.072803
-0.153809
-0.215039
-0.261156
-0.295821
-0.321781
-0.341204
-0.355674
-0.366455
-0.374446
-0.380382
-0.384755
-0.387995
-0.390365
-0.392121
-0.39339
-0.39433
-0.394999
-0.395496
-0.395836
-0.396089
-0.396251
-0.396373
-0.39644
-0.396493
-0.396508
-0.396522
-0.396509
-0.396498
-0.396467
-0.396445
-0.396405
-0.396372
-0.396325
-0.396285
-0.396228
-0.396178
-0.396111
-0.396046
-0.395955
-0.395857
-0.395722
-0.395561
-0.395342
-0.395068
-0.394697
-0.394214
-0.393561
-0.392697
-0.391528
-0.389967
-0.387865
-0.385059
-0.381303
-0.376308
-0.369684
-0.360961
-0.349545
-0.334758
-0.315806
-0.291881
-0.26222
-0.226345
-0.184356
-0.137501
-0.0888146
-0.0439981
-0.0112623
0.000727358
-0.00644386
-0.0130051
0.0265359
25.5193
49.2817
60.2668
63.7719
62.494
58.1399
52.1764
45.5769
39.0013
32.8255
27.2508
22.3566
18.1496
14.5932
11.6276
9.18305
7.18813
5.57455
4.27978
3.2484
2.43226
1.79045
1.28859
0.898277
0.59621
0.363558
0.185121
0.0488464
-0.0548669
-0.133495
-0.192939
-0.237719
-0.271386
-0.2966
-0.315468
-0.329524
-0.339997
-0.347757
-0.353523
-0.35777
-0.360918
-0.363219
-0.364925
-0.366158
-0.367071
-0.367721
-0.368203
-0.368532
-0.368776
-0.368931
-0.369047
-0.36911
-0.369159
-0.369173
-0.369185
-0.369171
-0.36916
-0.369129
-0.369107
-0.369067
-0.369034
-0.368988
-0.36895
-0.368894
-0.368845
-0.36878
-0.368717
-0.368628
-0.368532
-0.368401
-0.368243
-0.36803
-0.367762
-0.3674
-0.36693
-0.366295
-0.365456
-0.36432
-0.362805
-0.360764
-0.358041
-0.354397
-0.349552
-0.343128
-0.334672
-0.32361
-0.30929
-0.29095
-0.267814
-0.239159
-0.204528
-0.164009
-0.118733
-0.071377
-0.0267764
0.00875924
0.0297173
0.0415985
0.0601005
0.105419
24.1558
47.3708
57.8699
61.1742
59.9287
55.7719
50.0732
43.7586
37.4588
31.5369
26.1884
21.4908
17.452
14.0369
11.1888
8.8407
6.92419
5.37375
4.12944
3.13806
2.3534
1.73622
1.2535
0.877988
0.587304
0.363365
0.191568
0.0603326
-0.0395675
-0.115321
-0.172604
-0.215764
-0.248218
-0.272528
-0.29072
-0.304273
-0.314371
-0.321853
-0.32741
-0.331505
-0.33454
-0.336758
-0.338403
-0.339593
-0.340472
-0.341099
-0.341563
-0.341879
-0.342112
-0.342258
-0.342367
-0.342426
-0.342471
-0.342483
-0.342492
-0.342478
-0.342466
-0.342434
-0.342412
-0.342373
-0.342341
-0.342295
-0.342258
-0.342205
-0.342157
-0.342094
-0.342033
-0.341946
-0.341853
-0.341726
-0.341573
-0.341366
-0.341105
-0.340755
-0.3403
-0.339688
-0.338878
-0.337783
-0.336322
-0.334356
-0.331733
-0.328223
-0.323558
-0.317374
-0.309239
-0.298601
-0.284838
-0.267224
-0.245023
-0.217548
-0.184369
-0.145549
-0.102084
-0.0562486
-0.0119505
0.0264447
0.0564506
0.0869349
0.128977
0.175635
22.6148
45.0617
55.091
58.2042
57.0054
53.0669
47.6641
41.6703
35.6836
30.0513
24.9613
20.4893
16.6433
13.3907
10.6776
8.44049
6.61427
5.13665
3.95056
3.00537
2.25713
1.66845
1.20793
0.84959
0.572135
0.358333
0.19427
0.0689138
-0.0265331
-0.0989257
-0.153678
-0.194939
-0.22597
-0.249218
-0.266615
-0.279577
-0.289234
-0.296389
-0.301704
-0.305618
-0.30852
-0.310641
-0.312214
-0.313352
-0.314193
-0.314791
-0.315234
-0.315535
-0.315755
-0.315892
-0.315994
-0.316047
-0.316088
-0.316098
-0.316104
-0.316089
-0.316076
-0.316044
-0.316021
-0.315983
-0.315951
-0.315906
-0.315871
-0.315819
-0.315773
-0.315712
-0.315653
-0.31557
-0.31548
-0.315357
-0.31521
-0.31501
-0.314758
-0.314421
-0.313985
-0.313397
-0.312622
-0.311574
-0.310178
-0.308298
-0.305791
-0.302438
-0.297983
-0.292079
-0.284315
-0.274169
-0.261049
-0.244272
-0.223142
-0.197014
-0.165481
-0.128578
-0.0871464
-0.0430397
0.000780554
0.0418315
0.0803898
0.128032
0.19078
0.234732
20.963
42.4104
51.9529
54.8819
53.7442
50.0444
44.9662
39.3269
33.688
28.3788
23.5781
19.3586
15.729
12.6588
10.0974
7.98506
6.26045
4.86481
3.74434
2.85127
2.14413
1.58767
1.15225
0.813369
0.550912
0.348616
0.193345
0.0746777
-0.0156963
-0.0842562
-0.13612
-0.175211
-0.204613
-0.226644
-0.243131
-0.255416
-0.264569
-0.27135
-0.276385
-0.280094
-0.282843
-0.284853
-0.286343
-0.287422
-0.288218
-0.288784
-0.289203
-0.289487
-0.289692
-0.289819
-0.289912
-0.289959
-0.289995
-0.290002
-0.290006
-0.289989
-0.289975
-0.289942
-0.289919
-0.289882
-0.289851
-0.289807
-0.289773
-0.289723
-0.289679
-0.289619
-0.289563
-0.289484
-0.289397
-0.28928
-0.289138
-0.288946
-0.288706
-0.288384
-0.287969
-0.28741
-0.286673
-0.285679
-0.284356
-0.282575
-0.2802
-0.277025
-0.272808
-0.26722
-0.259878
-0.250288
-0.237895
-0.222059
-0.20213
-0.177504
-0.147798
-0.113014
-0.0738356
-0.0316891
0.0113811
0.0546265
0.100716
0.163185
0.242832
0.281011
19.2418
39.4705
48.4842
51.2301
50.1668
46.7251
41.9982
36.7443
31.4855
26.5305
22.0478
18.1064
14.7151
11.846
9.45198
7.47744
5.86508
4.56008
3.51219
2.67682
2.01525
1.49452
1.08697
0.769704
0.52393
0.334447
0.188976
0.0777731
-0.00693497
-0.0712097
-0.119842
-0.156501
-0.18408
-0.204745
-0.220211
-0.231735
-0.240322
-0.246682
-0.251405
-0.254882
-0.257461
-0.259346
-0.260743
-0.261754
-0.262501
-0.263031
-0.263422
-0.263686
-0.263876
-0.263991
-0.264074
-0.264115
-0.264146
-0.26415
-0.264151
-0.264132
-0.264116
-0.264083
-0.264059
-0.264022
-0.263992
-0.26395
-0.263917
-0.26387
-0.263827
-0.26377
-0.263716
-0.263641
-0.263558
-0.263446
-0.263311
-0.263129
-0.2629
-0.262595
-0.262204
-0.261677
-0.260984
-0.26005
-0.258808
-0.257137
-0.25491
-0.251933
-0.247981
-0.242746
-0.235872
-0.226898
-0.21531
-0.200513
-0.181904
-0.158924
-0.131212
-0.0987388
-0.0620281
-0.0220994
0.0198519
0.0645925
0.116738
0.191015
0.283183
0.313681
17.4766
36.2898
44.7168
47.2742
46.2966
43.1308
38.7799
33.9397
29.0908
24.5188
20.3805
16.7408
13.6083
10.9577
8.74566
6.92098
5.4308
4.22451
3.25572
2.48328
1.87142
1.38972
1.01264
0.719026
0.491523
0.316086
0.181367
0.0783618
-0.000118695
-0.0596793
-0.104753
-0.138735
-0.164302
-0.183462
-0.197802
-0.208487
-0.216448
-0.222344
-0.226722
-0.229944
-0.232333
-0.234079
-0.235374
-0.23631
-0.237002
-0.237491
-0.237853
-0.238095
-0.238267
-0.23837
-0.238444
-0.238477
-0.238503
-0.238503
-0.238501
-0.23848
-0.238462
-0.238429
-0.238403
-0.238368
-0.238339
-0.238298
-0.238266
-0.238221
-0.238181
-0.238126
-0.238074
-0.238003
-0.237924
-0.237818
-0.237691
-0.237519
-0.237304
-0.237018
-0.236652
-0.236161
-0.235516
-0.234648
-0.233495
-0.231944
-0.229879
-0.22712
-0.223458
-0.21861
-0.212248
-0.203948
-0.193235
-0.179565
-0.162387
-0.141184
-0.115622
-0.0856382
-0.051608
-0.0141785
0.0261996
0.0715381
0.127911
0.210512
0.310585
0.332612
15.6824
32.9096
40.6835
43.0415
42.1581
39.2846
35.3318
30.9312
26.5191
22.3565
18.587
15.2706
12.4157
9.99959
7.983
6.31933
4.96047
3.86033
2.97667
2.27198
1.71369
1.27408
0.929873
0.661807
0.454052
0.293809
0.170731
0.0766082
0.00488074
-0.0495639
-0.0907744
-0.121847
-0.145228
-0.16275
-0.175865
-0.185636
-0.192916
-0.198306
-0.202308
-0.205253
-0.207436
-0.209031
-0.210214
-0.211068
-0.2117
-0.212146
-0.212474
-0.212692
-0.212846
-0.212935
-0.212999
-0.213025
-0.213044
-0.213041
-0.213035
-0.213012
-0.212992
-0.212958
-0.212932
-0.212897
-0.212869
-0.212829
-0.212799
-0.212756
-0.212718
-0.212666
-0.212617
-0.212549
-0.212475
-0.212376
-0.212256
-0.212095
-0.211895
-0.21163
-0.211292
-0.21084
-0.210247
-0.20945
-0.208393
-0.206974
-0.205084
-0.202559
-0.199212
-0.194782
-0.188972
-0.181397
-0.171626
-0.159166
-0.143517
-0.124212
-0.100941
-0.0736153
-0.0424746
-0.00784432
0.0304395
0.0753298
0.13386
0.221037
0.324417
0.338145
13.8686
29.3654
36.4172
38.5603
37.7773
35.2104
31.6757
27.7379
23.787
20.0575
16.6787
13.7052
11.145
8.9779
7.16895
5.67641
4.4572
3.47
2.67694
2.04441
1.5432
1.14848
0.839353
0.598565
0.411914
0.267921
0.157302
0.072692
0.00820199
-0.0407559
-0.07782
-0.105768
-0.126801
-0.142563
-0.154362
-0.16315
-0.169699
-0.174545
-0.178143
-0.180788
-0.18275
-0.184182
-0.185245
-0.186011
-0.186578
-0.186976
-0.187268
-0.187461
-0.187596
-0.187671
-0.187724
-0.187742
-0.187755
-0.187746
-0.187737
-0.187711
-0.18769
-0.187655
-0.187629
-0.187594
-0.187567
-0.187529
-0.187499
-0.187459
-0.187423
-0.187373
-0.187327
-0.187263
-0.187194
-0.187101
-0.186991
-0.186841
-0.186658
-0.186415
-0.186107
-0.185696
-0.18516
-0.184438
-0.183485
-0.182205
-0.180503
-0.17823
-0.175218
-0.171235
-0.166014
-0.159212
-0.150442
-0.139265
-0.125238
-0.107939
-0.0870877
-0.0625754
-0.0345272
-0.00300692
0.0326178
0.0759208
0.134403
0.222332
0.324634
0.330982
12.0407
25.6872
31.9497
33.8598
33.1809
30.9329
27.8341
24.3796
20.9115
17.636
14.6676
12.0545
9.80417
7.89915
6.30876
4.99643
3.92431
3.05613
2.35859
1.80217
1.36121
1.01388
0.741824
0.529876
0.36555
0.238761
0.141339
0.0668134
0.00999968
-0.0331352
-0.0657962
-0.0904255
-0.108962
-0.122853
-0.133252
-0.140994
-0.146765
-0.151032
-0.1542
-0.156527
-0.158254
-0.159513
-0.160447
-0.161119
-0.161617
-0.161964
-0.162218
-0.162383
-0.162498
-0.162558
-0.1626
-0.16261
-0.162616
-0.162603
-0.16259
-0.162561
-0.162538
-0.162502
-0.162475
-0.162441
-0.162415
-0.162378
-0.16235
-0.162311
-0.162278
-0.162231
-0.162187
-0.162128
-0.162064
-0.161977
-0.161876
-0.16174
-0.161574
-0.161355
-0.161079
-0.160712
-0.160234
-0.159594
-0.15875
-0.157617
-0.156114
-0.154107
-0.151452
-0.147941
-0.143343
-0.137354
-0.12964
-0.119812
-0.107486
-0.0922915
-0.0739756
-0.0524194
-0.0276574
0.000441659
0.0328243
0.073365
0.129571
0.214518
0.311705
0.312104
10.2027
21.9006
27.3119
28.9697
28.3965
26.478
23.8302
20.8768
17.9103
15.1073
12.5662
10.3289
8.40182
6.77024
5.40799
4.28382
3.36535
2.62151
2.02382
1.54699
1.16905
0.871326
0.638089
0.45636
0.315441
0.206698
0.123128
0.059192
0.0104439
-0.0265694
-0.0545995
-0.075736
-0.0916459
-0.103566
-0.11249
-0.119132
-0.124082
-0.127739
-0.130455
-0.132447
-0.133926
-0.135001
-0.1358
-0.136373
-0.136798
-0.137091
-0.137305
-0.137441
-0.137535
-0.137579
-0.137609
-0.137612
-0.137611
-0.137592
-0.137575
-0.137544
-0.137518
-0.137482
-0.137454
-0.13742
-0.137396
-0.13736
-0.137333
-0.137296
-0.137265
-0.137221
-0.13718
-0.137124
-0.137066
-0.136986
-0.136895
-0.136772
-0.136624
-0.13643
-0.136188
-0.135867
-0.135452
-0.134896
-0.134167
-0.13319
-0.131895
-0.130167
-0.127885
-0.124869
-0.120922
-0.115786
-0.109174
-0.100753
-0.0901999
-0.0771937
-0.061515
-0.0430425
-0.021747
0.00262993
0.0311963
0.0678211
0.119599
0.19806
0.286536
0.282714
8.35692
18.0276
22.5328
23.9194
23.4524
21.8718
19.6879
17.2508
14.8017
12.4869
10.3878
8.53919
6.94678
5.59837
4.47245
3.54324
2.784
2.16908
1.67493
1.28067
0.968143
0.721922
0.529009
0.378683
0.2621
0.172128
0.102975
0.0500651
0.00971837
-0.0209155
-0.0441175
-0.0616113
-0.0747806
-0.0846442
-0.0920294
-0.0975218
-0.101615
-0.104636
-0.106879
-0.108521
-0.109741
-0.110625
-0.111283
-0.111751
-0.1121
-0.112336
-0.112509
-0.112614
-0.112687
-0.112715
-0.112733
-0.112727
-0.11272
-0.112695
-0.112674
-0.112639
-0.112612
-0.112575
-0.112547
-0.112512
-0.112489
-0.112454
-0.112429
-0.112393
-0.112365
-0.112323
-0.112285
-0.112234
-0.112181
-0.112108
-0.112027
-0.111918
-0.11179
-0.111622
-0.111415
-0.111142
-0.110792
-0.110325
-0.109714
-0.108899
-0.107821
-0.106384
-0.104489
-0.101988
-0.0987183
-0.0944657
-0.0889954
-0.0820325
-0.0733112
-0.0625662
-0.0496122
-0.0343353
-0.0166686
0.00370737
0.0279187
0.0595491
0.104916
0.173738
0.250409
0.244182
6.50539
14.0874
17.6404
18.7386
18.3771
17.141
15.4316
13.5232
11.6047
9.79087
8.14565
6.6966
5.4482
4.39099
3.50814
2.77951
2.18413
1.70189
1.31435
1.00512
0.759979
0.566833
0.415489
0.29755
0.206073
0.135475
0.0812065
0.0396849
0.00801909
-0.016021
-0.0342308
-0.0479567
-0.0582909
-0.0660265
-0.0718187
-0.0761215
-0.0793278
-0.0816899
-0.0834435
-0.0847233
-0.0856752
-0.0863614
-0.086873
-0.0872329
-0.0875016
-0.08768
-0.0878091
-0.0878823
-0.0879329
-0.0879455
-0.0879515
-0.0879365
-0.0879225
-0.0878927
-0.0878672
-0.087829
-0.0877997
-0.0877616
-0.0877331
-0.0876984
-0.0876758
-0.0876425
-0.0876182
-0.0875843
-0.0875576
-0.0875193
-0.0874841
-0.0874365
-0.0873889
-0.0873237
-0.087253
-0.0871591
-0.0870509
-0.0869099
-0.0867401
-0.0865159
-0.0862332
-0.0858574
-0.0853702
-0.0847206
-0.083867
-0.0827304
-0.0812359
-0.0792649
-0.0766932
-0.0733507
-0.0690556
-0.063591
-0.0567513
-0.0483271
-0.0381707
-0.0261835
-0.0122855
0.00384369
0.0232212
0.048903
0.0861239
0.142604
0.204914
0.19801
4.64958
10.0969
12.6612
13.4566
13.1995
12.3131
11.0863
9.71616
8.33847
7.03562
5.85367
4.81254
3.9155
3.15576
2.52128
1.99762
1.56972
1.22313
0.94458
0.722319
0.54611
0.407272
0.298476
0.213694
0.147931
0.0971795
0.058164
0.0283166
0.00555198
-0.0117252
-0.0248135
-0.034673
-0.0420971
-0.0476483
-0.0518049
-0.0548863
-0.0571821
-0.0588676
-0.0601189
-0.0610265
-0.061703
-0.0621858
-0.062547
-0.0627959
-0.0629823
-0.0631006
-0.0631855
-0.0632261
-0.0632537
-0.0632504
-0.063244
-0.0632202
-0.0631992
-0.0631638
-0.063134
-0.0630924
-0.0630611
-0.0630222
-0.0629933
-0.0629584
-0.0629363
-0.0629041
-0.062881
-0.0628486
-0.0628236
-0.0627882
-0.0627562
-0.0627123
-0.0626703
-0.0626127
-0.0625527
-0.062474
-0.0623863
-0.0622732
-0.0621409
-0.0619676
-0.0617536
-0.0614715
-0.0611107
-0.0606316
-0.0600076
-0.0591786
-0.0580941
-0.0566663
-0.0548086
-0.0523971
-0.049303
-0.0453686
-0.0404491
-0.0343924
-0.0270909
-0.0184683
-0.00845265
0.00322691
0.0173738
0.0363189
0.0639747
0.105933
0.151884
0.1458
2.79082
6.07159
7.62076
8.10249
7.94871
7.4155
6.67705
5.85215
5.02254
4.23786
3.52588
2.8987
2.35828
1.90053
1.51821
1.20267
0.944848
0.736029
0.568204
0.434296
0.328132
0.24449
0.178945
0.127876
0.0882623
0.0576996
0.0342028
0.0162354
0.00253103
-0.00786133
-0.0157346
-0.0216568
-0.0261168
-0.0294428
-0.031933
-0.0337702
-0.0351382
-0.0361344
-0.0368741
-0.0374025
-0.037798
-0.0380737
-0.0382816
-0.0384172
-0.0385194
-0.0385762
-0.0386162
-0.0386238
-0.0386278
-0.0386087
-0.03859
-0.0385572
-0.0385292
-0.0384881
-0.038454
-0.0384093
-0.0383756
-0.038336
-0.0383067
-0.0382717
-0.0382497
-0.0382184
-0.0381964
-0.0381656
-0.0381421
-0.0381095
-0.0380807
-0.0380407
-0.0380042
-0.0379544
-0.037905
-0.037842
-0.0377753
-0.0376905
-0.0375965
-0.0374751
-0.0373309
-0.0371442
-0.0369121
-0.0366065
-0.0362159
-0.0357002
-0.0350327
-0.0341571
-0.0330252
-0.0315595
-0.029685
-0.0273037
-0.0243321
-0.0206764
-0.0162711
-0.0110678
-0.00501806
0.00206053
0.0106801
0.0223005
0.0393392
0.0651793
0.0933405
0.0892276
0.93033
2.02584
2.54392
2.70521
2.65401
2.47599
2.22941
1.95385
1.67671
1.41452
1.17653
0.966932
0.786301
0.633239
0.505363
0.399857
0.313679
0.243907
0.187842
0.143124
0.107676
0.0797654
0.0578951
0.0408745
0.0276737
0.0175051
0.00968735
0.00372411
-0.00082401
-0.00425786
-0.00685987
-0.00880198
-0.0102651
-0.0113414
-0.0121464
-0.0127259
-0.0131556
-0.0134549
-0.0136773
-0.0138223
-0.0139337
-0.0139998
-0.0140525
-0.0140736
-0.0140904
-0.0140849
-0.0140796
-0.0140542
-0.0140341
-0.0139992
-0.0139683
-0.0139265
-0.0138913
-0.0138447
-0.0138063
-0.0137586
-0.0137225
-0.0136821
-0.0136525
-0.0136172
-0.0135951
-0.0135647
-0.0135435
-0.0135144
-0.0134923
-0.0134622
-0.0134366
-0.0134005
-0.0133694
-0.0133276
-0.0132891
-0.0132417
-0.0131963
-0.0131402
-0.0130849
-0.0130162
-0.0129425
-0.0128521
-0.0127501
-0.0126199
-0.0124652
-0.0122659
-0.0120198
-0.011702
-0.011303
-0.010792
-0.0101482
-0.00933391
-0.00832679
-0.00709202
-0.00560793
-0.00385703
-0.00182443
0.000559721
0.00346831
0.00740121
0.0131764
0.0219255
0.0314378
0.030018
-0.930737
-2.02667
-2.54501
-2.70645
-2.65535
-2.4775
-2.23107
-1.95589
-1.6791
-1.41737
-1.18002
-0.970834
-0.790618
-0.63808
-0.510744
-0.405585
-0.319596
-0.249892
-0.193851
-0.149099
-0.113607
-0.085608
-0.0636607
-0.0465215
-0.0332217
-0.0229275
-0.0150125
-0.00893012
-0.00428988
-0.000740629
0.00194746
0.00399952
0.00554407
0.00672573
0.00761194
0.0082948
0.00880651
0.00920685
0.00950362
0.00974305
0.00991693
0.0100613
0.0101646
0.0102583
0.0103273
0.0103955
0.0104464
0.0105046
0.0105489
0.0105996
0.0106425
0.0106933
0.0107356
0.0107878
0.0108302
0.0108807
0.0109192
0.0109606
0.0109906
0.011026
0.0110485
0.0110782
0.0110988
0.0111263
0.0111471
0.0111748
0.0111973
0.0112293
0.0112552
0.0112888
0.0113165
0.0113482
0.0113721
0.0113994
0.0114161
0.0114318
0.0114345
0.0114284
0.0113997
0.0113537
0.0112717
0.0111534
0.0109766
0.0107348
0.0103987
0.00995197
0.00936132
0.00860404
0.00764122
0.00644852
0.00500297
0.00329034
0.00128882
-0.00105311
-0.0039175
-0.00779463
-0.013501
-0.0221701
-0.0315931
-0.0300737
-2.79123
-6.07241
-7.62184
-8.10373
-7.95006
-7.41701
-6.67873
-5.85419
-5.02494
-4.24073
-3.52938
-2.90262
-2.36261
-1.90538
-1.52359
-1.2084
-0.950764
-0.742011
-0.57421
-0.440268
-0.33406
-0.25033
-0.184706
-0.133519
-0.0938071
-0.0631193
-0.039525
-0.0214386
-0.00764215
0.00286544
0.0108247
0.0168562
0.0213974
0.0248285
0.0273998
0.02934
0.0307894
0.0318867
0.0327008
0.033323
0.033781
0.0341352
0.0343942
0.0346023
0.0347565
0.0348875
0.0349837
0.0350741
0.0351427
0.0352093
0.0352639
0.0353234
0.0353729
0.0354304
0.0354769
0.0355298
0.0355707
0.0356131
0.0356436
0.0356792
0.0357022
0.0357314
0.0357516
0.0357777
0.0357971
0.0358227
0.0358422
0.0358702
0.0358909
0.0359163
0.0359332
0.0359492
0.0359518
0.0359502
0.0359284
0.0358913
0.0358232
0.0357209
0.035562
0.03534
0.0350222
0.0345873
0.0339889
0.0331892
0.0321203
0.030719
0.0288977
0.0265735
0.0236464
0.0200332
0.0156663
0.0105013
0.00448337
-0.00255309
-0.0111282
-0.0226925
-0.0396626
-0.0654229
-0.093495
-0.089283
-4.64998
-10.0977
-12.6623
-13.4578
-13.2008
-12.3146
-11.088
-9.71823
-8.3409
-7.03852
-5.85719
-4.81648
-3.91985
-3.16063
-2.52667
-2.00334
-1.57563
-1.2291
-0.95058
-0.728284
-0.552031
-0.413105
-0.304229
-0.21933
-0.153469
-0.102594
-0.0634804
-0.0335141
-0.0106576
0.00673444
0.0199083
0.0298761
0.0373811
0.0430367
0.0472742
0.0504578
0.0528341
0.0546206
0.0559462
0.0569468
0.0576856
0.0582473
0.0586604
0.0589817
0.0592201
0.059413
0.0595544
0.0596763
0.0597686
0.0598512
0.0599171
0.0599853
0.0600418
0.0601045
0.0601549
0.06021
0.0602531
0.0602967
0.0603278
0.0603636
0.0603873
0.0604161
0.060436
0.0604609
0.0604789
0.0605026
0.0605194
0.0605432
0.0605588
0.0605761
0.0605821
0.0605828
0.0605644
0.060534
0.0604743
0.0603849
0.0602464
0.0600489
0.0597612
0.0593648
0.0588133
0.0580651
0.0570492
0.0556969
0.0539025
0.0515555
0.0485149
0.0446376
0.039763
0.0337499
0.0264866
0.0179024
0.00791976
-0.00371776
-0.0178198
-0.0367082
-0.0642959
-0.106174
-0.152036
-0.145855
-6.50577
-14.0882
-17.6414
-18.7398
-18.3784
-17.1426
-15.4333
-13.5253
-11.6072
-9.79381
-8.14921
-6.70057
-5.45258
-4.39588
-3.51354
-2.78523
-2.19003
-1.70786
-1.32034
-1.01108
-0.765891
-0.572655
-0.421232
-0.303175
-0.211602
-0.140881
-0.0865146
-0.0448741
-0.0131165
0.0110377
0.0293326
0.0431654
0.05358
0.061419
0.0672917
0.0716956
0.0749811
0.0774437
0.0792714
0.0806432
0.0816574
0.0824227
0.0829874
0.0834199
0.0837406
0.0839942
0.0841799
0.0843326
0.0844479
0.0845465
0.0846236
0.0847
0.0847634
0.084831
0.0848852
0.0849422
0.0849872
0.0850321
0.0850641
0.0851001
0.0851246
0.0851532
0.085173
0.0851969
0.0852136
0.0852355
0.0852497
0.0852693
0.08528
0.0852892
0.0852844
0.0852702
0.0852311
0.0851725
0.0850754
0.0849347
0.084727
0.0844358
0.0840214
0.0834535
0.0826722
0.0816159
0.0801894
0.0782936
0.0757851
0.0725075
0.0682663
0.0628588
0.0560647
0.0476853
0.037567
0.0256185
0.0117552
-0.00433195
-0.0236637
-0.0492882
-0.0864416
-0.142842
-0.205064
-0.198064
-8.35729
-18.0284
-22.5339
-23.9206
-23.4538
-21.8733
-19.6896
-17.2529
-14.8043
-12.4899
-10.3914
-8.54321
-6.9512
-5.60329
-4.47786
-3.54896
-2.7899
-2.17504
-1.68091
-1.28661
-0.974041
-0.72773
-0.534738
-0.384296
-0.267617
-0.177524
-0.108273
-0.0552435
-0.014805
0.0159419
0.0392283
0.0568275
0.0700766
0.0800421
0.0875072
0.0930994
0.0972699
0.100391
0.102707
0.104441
0.105723
0.106686
0.107399
0.10794
0.10834
0.108653
0.108882
0.109064
0.109202
0.109316
0.109404
0.109488
0.109558
0.109631
0.109688
0.109747
0.109794
0.10984
0.109873
0.109909
0.109935
0.109963
0.109983
0.110006
0.110022
0.110042
0.110054
0.110069
0.110075
0.110076
0.110061
0.110032
0.109973
0.109887
0.109753
0.109563
0.109287
0.108904
0.108367
0.107631
0.106625
0.105268
0.103441
0.101014
0.0978076
0.0936202
0.0882045
0.0812989
0.0726238
0.0619252
0.0490093
0.0337716
0.0161417
-0.00419213
-0.0283567
-0.0599291
-0.105229
-0.173972
-0.250556
-0.244235
-10.203
-21.9014
-27.3129
-28.9709
-28.3979
-26.4796
-23.832
-20.879
-17.9128
-15.1104
-12.5699
-10.3329
-8.4063
-6.7752
-5.41342
-4.28955
-3.37124
-2.62746
-2.02978
-1.55291
-1.17493
-0.877118
-0.643801
-0.461957
-0.320943
-0.21208
-0.128413
-0.0643575
-0.0155175
0.0216074
0.049721
0.0709615
0.0869503
0.0989705
0.107974
0.114714
0.119739
0.123495
0.126284
0.128366
0.129907
0.131062
0.131917
0.132563
0.133041
0.133409
0.13368
0.133892
0.13405
0.13418
0.134279
0.134371
0.134447
0.134523
0.134585
0.134645
0.134693
0.13474
0.134775
0.134811
0.134838
0.134867
0.134886
0.134909
0.134924
0.134942
0.134952
0.134963
0.134964
0.134958
0.134932
0.134889
0.134811
0.134698
0.134529
0.13429
0.133949
0.133477
0.13282
0.131922
0.130698
0.12905
0.126834
0.123892
0.120009
0.114938
0.108381
0.100018
0.0895113
0.0765534
0.060913
0.0424804
0.0212239
-0.00311021
-0.0316286
-0.0681948
-0.119906
-0.198289
-0.286679
-0.282765
-12.0411
-25.6879
-31.9508
-33.8611
-33.1823
-30.9346
-27.836
-24.3819
-20.9141
-17.6391
-14.6713
-12.0586
-9.80871
-7.90415
-6.31421
-5.00216
-3.9302
-3.06206
-2.36454
-1.80808
-1.36708
-1.01966
-0.747518
-0.535455
-0.371035
-0.244128
-0.14661
-0.0719641
-0.0150584
0.0281867
0.0609301
0.0856619
0.104277
0.118265
0.128742
0.136581
0.142425
0.146789
0.15003
0.152447
0.154236
0.155574
0.156565
0.157311
0.157863
0.158285
0.158596
0.158835
0.159014
0.159158
0.159268
0.159367
0.159449
0.159529
0.159593
0.159655
0.159704
0.159753
0.159789
0.159826
0.159854
0.159883
0.159902
0.159925
0.159939
0.159956
0.159964
0.159971
0.159967
0.159954
0.159917
0.159861
0.159764
0.159626
0.159423
0.159138
0.158733
0.158176
0.157404
0.15635
0.154917
0.152988
0.150398
0.14696
0.142425
0.136503
0.128844
0.119074
0.106796
0.0916514
0.0733745
0.0518593
0.0271386
-0.000916501
-0.0332497
-0.0737313
-0.12987
-0.21474
-0.311844
-0.312153
-13.8689
-29.3661
-36.4182
-38.5615
-37.7787
-35.2121
-31.6777
-27.7403
-23.7898
-20.0607
-16.6825
-13.7094
-11.1496
-8.98295
-7.17442
-5.68214
-4.46307
-3.47592
-2.68287
-2.0503
-1.54905
-1.15423
-0.845028
-0.604126
-0.417381
-0.273271
-0.162556
-0.0778263
-0.0132444
0.0358224
0.0729677
0.101017
0.122126
0.137985
0.149859
0.158742
0.165363
0.170304
0.173973
0.176707
0.178731
0.180243
0.181363
0.182206
0.182827
0.1833
0.183648
0.183914
0.184112
0.18427
0.18439
0.184497
0.184583
0.184667
0.184734
0.184797
0.184847
0.184897
0.184934
0.184972
0.185001
0.18503
0.18505
0.185073
0.185086
0.185102
0.185108
0.185111
0.185102
0.185082
0.185036
0.184966
0.184853
0.18469
0.184454
0.184125
0.183661
0.183022
0.18214
0.180938
0.179304
0.177108
0.174162
0.170251
0.165093
0.158356
0.149644
0.138524
0.124545
0.107299
0.0864875
0.0620179
0.0340131
0.00253842
-0.0330353
-0.0762788
-0.134694
-0.222548
-0.324769
-0.331029
-15.6827
-32.9103
-40.6845
-43.0427
-42.1596
-39.2863
-35.3338
-30.9337
-26.522
-22.3598
-18.5909
-15.2749
-12.4204
-10.0047
-7.98849
-6.32506
-4.96633
-3.86624
-2.98258
-2.27785
-1.71951
-1.27982
-0.935526
-0.667347
-0.459499
-0.29914
-0.175968
-0.0817249
-0.00990576
0.0446467
0.0859371
0.117109
0.140565
0.158182
0.17137
0.181234
0.188584
0.194067
0.198139
0.201172
0.203417
0.205093
0.206334
0.207265
0.207952
0.208472
0.208856
0.209148
0.209363
0.209535
0.209664
0.209777
0.209869
0.209955
0.210024
0.210089
0.21014
0.210191
0.210229
0.210268
0.210298
0.210328
0.210348
0.210371
0.210384
0.210398
0.210402
0.210403
0.210389
0.210362
0.210307
0.210225
0.210095
0.209909
0.209643
0.209272
0.208751
0.208035
0.207049
0.205707
0.203885
0.201435
0.198153
0.193794
0.188046
0.180537
0.170824
0.158421
0.142823
0.123571
0.100342
0.0730608
0.0419654
0.00738296
-0.0308482
-0.0756787
-0.134142
-0.221244
-0.324545
-0.33819
-17.4769
-36.2904
-44.7178
-47.2754
-46.2981
-43.1326
-38.782
-33.9422
-29.0937
-24.5222
-20.3845
-16.7452
-13.6131
-10.9628
-8.75117
-6.92671
-5.43665
-4.2304
-3.26162
-2.48913
-1.87722
-1.39544
-1.01827
-0.724546
-0.496951
-0.321398
-0.186585
-0.0834599
-0.00488829
0.0547791
0.0999323
0.134013
0.159652
0.178905
0.193315
0.204092
0.21212
0.218107
0.222553
0.225863
0.228314
0.230142
0.231495
0.232509
0.233257
0.233821
0.234237
0.234552
0.234784
0.234968
0.235107
0.235227
0.235322
0.235411
0.235482
0.235548
0.235599
0.235651
0.235691
0.235731
0.235762
0.235793
0.235813
0.235836
0.235849
0.235862
0.235865
0.235862
0.235844
0.235811
0.235747
0.235653
0.235508
0.235301
0.235006
0.234597
0.234022
0.233235
0.232151
0.230678
0.22868
0.225993
0.222396
0.217618
0.211316
0.203083
0.192428
0.178817
0.16169
0.140541
0.115023
0.085087
0.051104
0.0137249
-0.0265987
-0.071877
-0.128183
-0.210711
-0.310707
-0.332654
-19.2421
-39.4711
-48.4852
-51.2313
-50.1683
-46.7269
-42.0004
-36.7469
-31.4885
-26.534
-22.0518
-18.1109
-14.7199
-11.8512
-9.45752
-7.48316
-5.87092
-4.56596
-3.51807
-2.68266
-2.02103
-1.50021
-1.09258
-0.775203
-0.529338
-0.339738
-0.194174
-0.0828521
0.0019463
0.0663271
0.115037
0.151794
0.179442
0.200199
0.215733
0.227347
0.235999
0.242448
0.247237
0.250802
0.253442
0.255409
0.256865
0.257955
0.258759
0.259363
0.259808
0.260146
0.260393
0.260588
0.260736
0.260861
0.26096
0.261051
0.261123