/*--------------------------------*- C++ -*----------------------------------*\
| =========                 |                                                 |
| \\      /  F ield         | OpenFOAM: The Open Source CFD Toolbox           |
|  \\    /   O peration     | Version:  5.x                                   |
|   \\  /    A nd           | Web:      www.OpenFOAM.org                      |
|    \\/     M anipulation  |                                                 |
\*---------------------------------------------------------------------------*/
FoamFile
{
    version     2.0;
    format      ascii;
    class       surfaceScalarField;
    location    "1";
    object      phi;
}
// * * * * * * * * * * * * * * * * * * * * * * * * * * * * * * * * * * * * * //

dimensions      [0 3 -1 0 0 0 0];

internalField   nonuniform List<scalar> 
7860
(
0.00283446
0.00216554
0.00262141
0.000213047
0.00260904
1.23689e-05
0.00260651
2.5309e-06
0.0026092
-2.68406e-06
0.00260789
1.30479e-06
0.00260676
1.13347e-06
0.00260515
1.60936e-06
0.00260388
1.26723e-06
0.00260275
1.13532e-06
0.00260183
9.19371e-07
0.00260105
7.8004e-07
0.0026004
6.47139e-07
0.00259985
5.4515e-07
0.0025994
4.56607e-07
0.00259902
3.80842e-07
0.0025987
3.16502e-07
0.00259844
2.6229e-07
0.00259822
2.15303e-07
0.00259805
1.75258e-07
0.0025979
1.42037e-07
0.00259779
1.13837e-07
0.0025977
9.03734e-08
0.00259763
7.07575e-08
0.00259757
5.5459e-08
0.00259753
4.27454e-08
0.0025975
3.28462e-08
0.00259747
2.4815e-08
0.00259746
1.88847e-08
0.00259744
1.40024e-08
0.00259743
1.0703e-08
0.00259742
7.53034e-09
0.00259742
5.54829e-09
0.00259741
3.85141e-09
0.00259741
3.14359e-09
0.00259741
2.22535e-09
0.00259741
1.78836e-09
0.00259741
1.17798e-09
0.00259741
8.33457e-10
0.00259741
4.12615e-10
0.00259741
4.61318e-10
0.00259741
5.13802e-10
0.00259741
4.95469e-10
0.00259741
-2.3781e-10
0.00259741
6.23283e-11
0.00259741
2.21419e-10
0.00259741
1.46996e-10
0.00259741
-2.6649e-10
0.00259741
2.08965e-11
0.00259741
9.31913e-11
0.00259741
1.88293e-10
0.00259741
-2.77304e-10
0.00259741
1.19449e-10
0.00259741
3.13468e-10
0.0025974
3.79585e-10
0.00259741
-3.16194e-10
0.0025974
-1.67419e-10
0.0025974
3.36228e-10
0.0025974
1.27849e-10
0.0025974
-4.79836e-10
0.0025974
-3.5823e-11
0.00259741
1.74822e-10
0.00259741
-1.98824e-10
0.00259741
-5.18541e-10
0.00259741
2.02902e-10
0.00259741
2.1016e-10
0.00259741
-1.79748e-10
0.00259741
-3.58072e-10
0.00259741
5.26016e-11
0.00259741
1.89644e-11
0.00259741
3.2728e-11
0.00259741
-6.88838e-11
0.00259741
-3.40257e-11
0.00259741
-1.4229e-10
0.00259741
6.69344e-11
0.00259741
2.12866e-10
0.00259741
-5.44508e-11
0.0025974
1.60143e-10
0.0025974
1.15601e-10
0.0025974
2.85797e-10
0.0025974
7.00776e-10
0.0025974
7.81994e-10
0.0025974
9.64591e-10
0.0025974
1.67666e-09
0.0025974
2.40502e-09
0.00259739
3.49172e-09
0.00259739
5.24035e-09
0.00259738
7.0853e-09
0.00259737
1.01975e-08
0.00259736
1.45404e-08
0.00259734
2.00126e-08
0.00259731
2.66321e-08
0.00259728
3.39981e-08
0.00259724
3.79189e-08
0.00259721
3.38411e-08
0.00259718
2.28869e-08
0.00259708
1.01895e-07
0.00259638
6.96771e-07
0.00259378
2.60382e-06
-1.18897e-06
0.0045679
0.00259764
0.00437567
0.000405281
0.00434684
4.11991e-05
0.00434304
6.32673e-06
0.00434601
-5.65662e-06
0.00434445
2.87172e-06
0.00434278
2.80045e-06
0.00434052
3.8648e-06
0.00433867
3.11903e-06
0.00433702
2.78509e-06
0.00433567
2.27243e-06
0.00433452
1.9286e-06
0.00433356
1.60664e-06
0.00433275
1.35551e-06
0.00433207
1.13868e-06
0.00433149
9.53554e-07
0.00433102
7.94797e-07
0.00433062
6.60207e-07
0.00433029
5.44713e-07
0.00433002
4.4521e-07
0.0043298
3.61716e-07
0.00432962
2.90879e-07
0.00432948
2.32247e-07
0.00432937
1.82748e-07
0.00432928
1.43224e-07
0.00432922
1.11001e-07
0.00432916
8.58607e-08
0.00432912
6.51826e-08
0.00432909
4.95587e-08
0.00432907
3.66284e-08
0.00432905
2.78818e-08
0.00432904
2.03499e-08
0.00432903
1.52629e-08
0.00432903
1.06783e-08
0.00432902
8.30845e-09
0.00432902
5.77291e-09
0.00432901
4.71029e-09
0.00432901
3.34091e-09
0.00432901
2.66372e-09
0.00432901
1.52607e-09
0.00432901
1.23731e-09
0.00432901
8.20885e-10
0.00432901
1.27081e-09
0.00432901
-1.45944e-11
0.00432901
1.72734e-10
0.00432901
2.63173e-10
0.00432901
1.96602e-10
0.00432901
-5.73624e-10
0.00432901
5.02126e-11
0.00432901
1.78406e-10
0.00432901
5.30321e-10
0.00432901
-2.37232e-10
0.00432901
2.53895e-10
0.00432901
3.45641e-10
0.00432901
7.07311e-10
0.00432901
-2.39951e-10
0.00432901
-2.44619e-10
0.00432901
2.38923e-10
0.00432901
3.75503e-10
0.00432901
-6.89017e-10
0.00432901
-2.07344e-10
0.00432901
1.55194e-10
0.00432901
-7.26659e-11
0.00432901
-8.66193e-10
0.00432901
-1.75861e-11
0.00432901
1.1144e-10
0.00432901
-1.55177e-10
0.00432901
-6.84077e-10
0.00432901
-1.12438e-10
0.00432901
-2.82582e-10
0.00432901
-1.09499e-10
0.00432901
-1.42631e-10
0.00432901
8.27459e-11
0.00432901
-2.1617e-10
0.00432901
3.93342e-11
0.00432901
2.61059e-10
0.00432901
2.0086e-10
0.00432901
2.79151e-10
0.00432901
5.03629e-10
0.00432901
5.92062e-10
0.00432901
1.44367e-09
0.004329
1.93355e-09
0.004329
2.73447e-09
0.004329
4.19821e-09
0.004329
6.24594e-09
0.00432899
8.88382e-09
0.00432898
1.32163e-08
0.00432897
1.82919e-08
0.00432896
2.59662e-08
0.00432893
3.65567e-08
0.0043289
5.04455e-08
0.00432886
6.73248e-08
0.00432881
8.72393e-08
0.00432875
1.0091e-07
0.00432868
1.05694e-07
0.00432859
1.11834e-07
0.00432827
4.1791e-07
0.00432694
2.02967e-06
0.00432236
7.18544e-06
7.91278e-06
0.00507231
0.00252533
0.00495575
0.000521844
0.00492305
7.3895e-05
0.00492078
8.59979e-06
0.00492259
-7.47069e-06
0.00492142
4.04362e-06
0.00491972
4.49904e-06
0.00491761
5.97663e-06
0.00491579
4.93201e-06
0.0049142
4.38197e-06
0.00491287
3.59893e-06
0.00491174
3.0538e-06
0.0049108
2.55246e-06
0.00491
2.15546e-06
0.00490932
1.81465e-06
0.00490875
1.52448e-06
0.00490827
1.27428e-06
0.00490787
1.06082e-06
0.00490754
8.78203e-07
0.00490726
7.20417e-07
0.00490704
5.868e-07
0.00490686
4.73165e-07
0.00490671
3.7917e-07
0.00490659
2.9976e-07
0.0049065
2.35192e-07
0.00490643
1.82808e-07
0.00490638
1.41779e-07
0.00490633
1.08076e-07
0.0049063
8.23752e-08
0.00490628
6.10703e-08
0.00490626
4.61939e-08
0.00490625
3.42187e-08
0.00490624
2.57731e-08
0.00490623
1.81802e-08
0.00490622
1.40112e-08
0.00490622
9.88322e-09
0.00490622
7.88457e-09
0.00490621
5.70751e-09
0.00490621
4.63429e-09
0.00490621
2.9676e-09
0.00490621
2.2995e-09
0.00490621
1.09691e-09
0.00490621
1.81286e-09
0.00490621
3.72393e-10
0.00490621
2.93699e-10
0.00490621
2.07827e-10
0.00490621
2.16257e-10
0.00490621
-6.94774e-10
0.00490621
1.24801e-11
0.00490621
1.09576e-10
0.00490621
8.24006e-10
0.00490621
9.25177e-11
0.00490621
5.2757e-10
0.00490621
3.65414e-10
0.00490621
9.33345e-10
0.00490621
1.16751e-10
0.00490621
-1.06005e-10
0.00490621
1.26327e-11
0.00490621
5.10664e-10
0.00490621
-7.20903e-10
0.00490621
-5.06279e-10
0.00490621
-1.42426e-10
0.00490621
1.67097e-11
0.00490621
-9.65405e-10
0.00490621
-3.07296e-10
0.00490621
-1.7343e-10
0.00490621
-1.42641e-10
0.00490621
-8.75652e-10
0.00490621
-2.35073e-10
0.00490621
-4.90264e-10
0.00490621
-2.31464e-10
0.00490621
-1.63016e-10
0.00490621
2.49725e-10
0.00490621
-1.04948e-10
0.00490621
6.56005e-11
0.00490621
1.68142e-10
0.00490621
4.02609e-10
0.00490621
3.33315e-10
0.00490621
8.906e-10
0.00490621
9.57253e-10
0.00490621
2.12487e-09
0.00490621
3.0872e-09
0.0049062
4.63002e-09
0.0049062
6.88787e-09
0.0049062
1.03451e-08
0.00490619
1.45498e-08
0.00490618
2.13583e-08
0.00490617
2.98668e-08
0.00490616
4.21386e-08
0.00490613
5.89502e-08
0.0049061
8.13332e-08
0.00490606
1.08867e-07
0.004906
1.4317e-07
0.00490593
1.7141e-07
0.00490584
2.02087e-07
0.00490569
2.57559e-07
0.00490522
8.92139e-07
0.0049036
3.64995e-06
0.00489775
1.30296e-05
2.27427e-05
0.00521017
0.00231516
0.00513985
0.000592166
0.00511275
0.000100987
0.00511162
9.73795e-06
0.0051127
-8.55435e-06
0.00511186
4.88273e-06
0.00511038
5.98147e-06
0.00510861
7.74737e-06
0.00510704
6.49374e-06
0.00510567
5.75324e-06
0.00510452
4.74859e-06
0.00510354
4.03036e-06
0.00510272
3.37776e-06
0.00510202
2.85631e-06
0.00510142
2.41003e-06
0.00510092
2.02893e-06
0.00510049
1.70094e-06
0.00510013
1.4192e-06
0.00509983
1.17797e-06
0.00509959
9.69504e-07
0.00509938
7.91907e-07
0.00509922
6.39943e-07
0.00509908
5.1407e-07
0.00509897
4.0825e-07
0.00509889
3.21124e-07
0.00509882
2.50023e-07
0.00509877
1.94189e-07
0.00509873
1.48528e-07
0.0050987
1.1357e-07
0.00509868
8.46742e-08
0.00509866
6.37722e-08
0.00509865
4.73474e-08
0.00509864
3.57914e-08
0.00509863
2.55239e-08
0.00509862
1.96838e-08
0.00509862
1.41255e-08
0.00509862
1.1051e-08
0.00509861
7.93077e-09
0.00509861
6.44799e-09
0.00509861
4.50517e-09
0.00509861
3.49845e-09
0.00509861
1.40254e-09
0.00509861
2.19221e-09
0.00509861
8.12728e-10
0.00509861
4.34559e-10
0.00509861
1.41191e-10
0.00509861
2.61236e-10
0.00509861
-7.56053e-10
0.00509861
-3.03255e-11
0.00509861
5.35113e-12
0.00509861
1.04165e-09
0.00509861
4.65829e-10
0.00509861
9.19259e-10
0.00509861
4.22375e-10
0.00509861
1.03578e-09
0.00509861
4.85516e-10
0.00509861
1.62913e-10
0.00509861
-2.3289e-10
0.00509861
4.49679e-10
0.00509861
-6.41273e-10
0.00509861
-6.85836e-10
0.00509861
-4.8481e-10
0.00509861
-1.83124e-11
0.00509861
-1.01028e-09
0.00509861
-5.23434e-10
0.00509861
-4.50417e-10
0.00509861
-1.33711e-10
0.00509861
-1.05732e-09
0.00509861
-3.82351e-10
0.00509861
-6.15533e-10
0.00509861
-2.89681e-10
0.00509861
-1.43608e-10
0.00509861
3.43201e-10
0.00509861
5.5274e-12
0.00509861
1.41097e-10
0.00509861
1.15119e-10
0.00509861
5.57737e-10
0.00509861
3.868e-10
0.00509861
1.17498e-09
0.00509861
1.34113e-09
0.00509861
2.73974e-09
0.00509861
4.15926e-09
0.0050986
6.39814e-09
0.0050986
9.43461e-09
0.0050986
1.4171e-08
0.00509859
1.98625e-08
0.00509858
2.88091e-08
0.00509857
4.04087e-08
0.00509856
5.67828e-08
0.00509854
7.91322e-08
0.00509851
1.09229e-07
0.00509847
1.46748e-07
0.00509842
1.96021e-07
0.00509835
2.42849e-07
0.00509824
3.13506e-07
0.00509805
4.4259e-07
0.00509748
1.45973e-06
0.00509583
5.30324e-06
0.00508957
1.92943e-05
3.78193e-05
0.00523351
0.00208166
0.00519441
0.000631266
0.00517374
0.000121651
0.00517342
1.00569e-05
0.00517405
-9.18358e-06
0.00517353
5.40387e-06
0.00517234
7.17287e-06
0.00517095
9.13624e-06
0.0051697
7.74469e-06
0.0051686
6.85287e-06
0.00516767
5.67842e-06
0.00516688
4.8238e-06
0.0051662
4.05203e-06
0.00516563
3.43159e-06
0.00516514
2.89912e-06
0.00516472
2.44734e-06
0.00516436
2.05736e-06
0.00516406
1.72068e-06
0.00516381
1.4314e-06
0.0051636
1.18132e-06
0.00516342
9.67622e-07
0.00516328
7.83725e-07
0.00516316
6.30651e-07
0.00516307
5.02539e-07
0.00516299
3.96625e-07
0.00516293
3.09321e-07
0.00516289
2.40491e-07
0.00516285
1.84516e-07
0.00516282
1.4139e-07
0.0051628
1.05929e-07
0.00516279
7.97916e-08
0.00516278
5.92613e-08
0.00516277
4.48621e-08
0.00516276
3.22297e-08
0.00516276
2.49144e-08
0.00516275
1.81644e-08
0.00516275
1.40795e-08
0.00516275
1.0063e-08
0.00516275
8.06306e-09
0.00516274
5.8464e-09
0.00516274
4.70429e-09
0.00516274
1.87268e-09
0.00516274
2.493e-09
0.00516274
1.25271e-09
0.00516274
6.45915e-10
0.00516274
7.45884e-11
0.00516274
3.04867e-10
0.00516274
-7.17665e-10
0.00516274
1.96301e-12
0.00516274
-9.18584e-11
0.00516274
1.1349e-09
0.00516274
7.56897e-10
0.00516274
1.35427e-09
0.00516274
5.63183e-10
0.00516274
1.02392e-09
0.00516274
7.09871e-10
0.00516274
4.87395e-10
0.00516274
-3.59671e-10
0.00516274
2.69087e-10
0.00516274
-5.94729e-10
0.00516274
-7.54231e-10
0.00516274
-7.7413e-10
0.00516274
-1.18044e-10
0.00516274
-1.07781e-09
0.00516274
-7.12607e-10
0.00516274
-7.31624e-10
0.00516274
-1.56598e-10
0.00516274
-1.23666e-09
0.00516274
-6.23176e-10
0.00516274
-7.35475e-10
0.00516274
-2.90536e-10
0.00516274
-9.83861e-11
0.00516274
4.00493e-10
0.00516274
9.42185e-11
0.00516274
2.48619e-10
0.00516274
9.09237e-11
0.00516274
6.68644e-10
0.00516274
4.52055e-10
0.00516274
1.35276e-09
0.00516274
1.67719e-09
0.00516274
3.30995e-09
0.00516274
5.12346e-09
0.00516274
7.94714e-09
0.00516273
1.1672e-08
0.00516273
1.75282e-08
0.00516273
2.45462e-08
0.00516272
3.52497e-08
0.00516271
4.94475e-08
0.0051627
6.9259e-08
0.00516268
9.62465e-08
0.00516266
1.33021e-07
0.00516263
1.79496e-07
0.00516258
2.43516e-07
0.00516251
3.11716e-07
0.00516239
4.31785e-07
0.00516218
6.49787e-07
0.0051616
2.04375e-06
0.00516003
6.86991e-06
0.00515415
2.51787e-05
5.09508e-05
0.00522276
0.00185889
0.00520674
0.00064729
0.00519201
0.000136377
0.00519224
9.82575e-06
0.0051926
-9.53878e-06
0.00519235
5.64764e-06
0.00519147
8.05769e-06
0.00519046
1.01446e-05
0.00518953
8.6799e-06
0.0051887
7.6762e-06
0.005188
6.38277e-06
0.00518739
5.42857e-06
0.00518687
4.56987e-06
0.00518643
3.87615e-06
0.00518605
3.28006e-06
0.00518572
2.77486e-06
0.00518544
2.33856e-06
0.0051852
1.96076e-06
0.005185
1.63454e-06
0.00518483
1.35208e-06
0.00518469
1.1104e-06
0.00518457
9.01602e-07
0.00518447
7.26643e-07
0.00518439
5.80603e-07
0.00518433
4.59397e-07
0.00518428
3.58932e-07
0.00518424
2.79483e-07
0.00518421
2.14995e-07
0.00518419
1.65014e-07
0.00518417
1.24095e-07
0.00518416
9.36386e-08
0.00518415
6.96359e-08
0.00518414
5.28261e-08
0.00518414
3.81627e-08
0.00518413
2.94034e-08
0.00518413
2.17441e-08
0.00518413
1.68616e-08
0.00518412
1.20816e-08
0.00518412
9.49329e-09
0.00518412
6.93558e-09
0.00518412
5.74848e-09
0.00518412
2.43849e-09
0.00518412
2.74987e-09
0.00518412
1.6489e-09
0.00518412
8.90573e-10
0.00518412
5.94791e-11
0.00518412
3.10578e-10
0.00518412
-6.92582e-10
0.00518412
8.57688e-11
0.00518412
-3.76955e-11
0.00518412
1.1905e-09
0.00518412
9.02e-10
0.00518412
1.73043e-09
0.00518412
8.22282e-10
0.00518412
9.86884e-10
0.00518412
7.65846e-10
0.00518412
7.6087e-10
0.00518412
-3.41002e-10
0.00518412
5.20184e-11
0.00518412
-6.14616e-10
0.00518412
-7.78178e-10
0.00518412
-9.95786e-10
0.00518412
-2.40518e-10
0.00518412
-1.1453e-09
0.00518412
-8.91216e-10
0.00518412
-1.01836e-09
0.00518412
-2.11371e-10
0.00518412
-1.34874e-09
0.00518412
-8.89565e-10
0.00518412
-8.86296e-10
0.00518412
-3.00429e-10
0.00518412
-2.48459e-11
0.00518412
4.60431e-10
0.00518412
1.70846e-10
0.00518412
3.60105e-10
0.00518412
7.31922e-11
0.00518412
7.09801e-10
0.00518412
5.32976e-10
0.00518412
1.47716e-09
0.00518412
1.92735e-09
0.00518412
3.76246e-09
0.00518412
5.9454e-09
0.00518412
9.25235e-09
0.00518411
1.35254e-08
0.00518411
2.02885e-08
0.00518411
2.84616e-08
0.0051841
4.0509e-08
0.00518409
5.67743e-08
0.00518408
7.93264e-08
0.00518407
1.09974e-07
0.00518405
1.52296e-07
0.00518402
2.0655e-07
0.00518398
2.8452e-07
0.00518392
3.74675e-07
0.0051838
5.48977e-07
0.00518359
8.60331e-07
0.00518302
2.61401e-06
0.00518164
8.24874e-06
0.0051766
3.02239e-05
6.1584e-05
0.00520407
0.00165482
0.00520563
0.000645733
0.00519623
0.000145772
0.00519682
9.23772e-06
0.005197
-9.71505e-06
0.00519699
5.65566e-06
0.0051964
8.64492e-06
0.00519575
1.07964e-05
0.00519512
9.31206e-06
0.00519456
8.23482e-06
0.00519407
6.86864e-06
0.00519365
5.85001e-06
0.00519328
4.93488e-06
0.00519297
4.1922e-06
0.00519269
3.55376e-06
0.00519246
3.01221e-06
0.00519225
2.54403e-06
0.00519207
2.13829e-06
0.00519192
1.78623e-06
0.0051918
1.4804e-06
0.00519169
1.2185e-06
0.0051916
9.91947e-07
0.00519152
8.00634e-07
0.00519146
6.40986e-07
0.00519142
5.08375e-07
0.00519138
3.98148e-07
0.00519135
3.103e-07
0.00519132
2.39246e-07
0.0051913
1.83923e-07
0.00519129
1.38869e-07
0.00519128
1.04913e-07
0.00519127
7.81297e-08
0.00519126
5.93307e-08
0.00519126
4.32281e-08
0.00519126
3.29828e-08
0.00519125
2.47386e-08
0.00519125
1.92464e-08
0.00519125
1.39512e-08
0.00519125
1.07179e-08
0.00519125
7.76009e-09
0.00519125
6.54264e-09
0.00519125
3.1174e-09
0.00519125
2.97082e-09
0.00519125
1.95848e-09
0.00519125
1.09104e-09
0.00519125
1.03098e-10
0.00519125
2.67916e-10
0.00519125
-6.56753e-10
0.00519125
1.56722e-10
0.00519125
1.64755e-10
0.00519125
1.27794e-09
0.00519125
9.88217e-10
0.00519125
1.97321e-09
0.00519125
1.18018e-09
0.00519125
1.00358e-09
0.00519125
7.28186e-10
0.00519124
8.79463e-10
0.00519125
-2.19864e-10
0.00519124
-1.33822e-10
0.00519125
-6.61915e-10
0.00519125
-8.29399e-10
0.00519125
-1.17004e-09
0.00519125
-3.9051e-10
0.00519125
-1.16121e-09
0.00519125
-1.03021e-09
0.00519125
-1.2693e-09
0.00519125
-3.27773e-10
0.00519125
-1.37849e-09
0.00519125
-1.12225e-09
0.00519125
-1.01483e-09
0.00519125
-3.46707e-10
0.00519125
5.79833e-11
0.00519125
5.06365e-10
0.00519125
2.47142e-10
0.00519125
4.52713e-10
0.00519125
7.0648e-11
0.00519125
6.59341e-10
0.00519124
6.04022e-10
0.00519124
1.57121e-09
0.00519124
2.10318e-09
0.00519124
4.05105e-09
0.00519124
6.57795e-09
0.00519124
1.02772e-08
0.00519124
1.49862e-08
0.00519124
2.23923e-08
0.00519124
3.14941e-08
0.00519123
4.45377e-08
0.00519123
6.23211e-08
0.00519122
8.69114e-08
0.00519121
1.20244e-07
0.00519119
1.66917e-07
0.00519117
2.27647e-07
0.00519114
3.18125e-07
0.00519108
4.29974e-07
0.00519097
6.58436e-07
0.00519077
1.06054e-06
0.00519026
3.13146e-06
0.00518912
9.3815e-06
0.00518513
3.422e-05
6.96212e-05
0.00518545
0.00146937
0.00520065
0.000630535
0.00519597
0.000150449
0.00519677
8.43921e-06
0.00519681
-9.75467e-06
0.00519699
5.47353e-06
0.00519668
8.95443e-06
0.00519636
1.11223e-05
0.00519601
9.66119e-06
0.00519569
8.54611e-06
0.00519541
7.14821e-06
0.00519517
6.09726e-06
0.00519495
5.1539e-06
0.00519476
4.38469e-06
0.00519459
3.72307e-06
0.00519444
3.1617e-06
0.00519431
2.67524e-06
0.00519419
2.25362e-06
0.00519409
1.88649e-06
0.00519401
1.56615e-06
0.00519393
1.29139e-06
0.00519387
1.05403e-06
0.00519382
8.5203e-07
0.00519378
6.83165e-07
0.00519374
5.42861e-07
0.00519372
4.26257e-07
0.0051937
3.32477e-07
0.00519368
2.56853e-07
0.00519366
1.97765e-07
0.00519365
1.49954e-07
0.00519365
1.13345e-07
0.00519364
8.44532e-08
0.00519363
6.41156e-08
0.00519363
4.72092e-08
0.00519363
3.57827e-08
0.00519363
2.71018e-08
0.00519363
2.10647e-08
0.00519362
1.54931e-08
0.00519362
1.17445e-08
0.00519362
8.41006e-09
0.00519362
7.08969e-09
0.00519362
3.80193e-09
0.00519362
3.16631e-09
0.00519362
2.20679e-09
0.00519362
1.22086e-09
0.00519362
1.67083e-10
0.00519362
2.17835e-10
0.00519362
-5.92842e-10
0.00519362
1.52269e-10
0.00519362
4.03625e-10
0.00519362
1.4353e-09
0.00519362
1.09281e-09
0.00519362
2.05038e-09
0.00519362
1.53915e-09
0.00519362
1.11108e-09
0.00519362
6.90312e-10
0.00519362
8.4652e-10
0.00519362
-7.39601e-11
0.00519362
-2.64404e-10
0.00519362
-6.96036e-10
0.00519362
-8.93914e-10
0.00519362
-1.32103e-09
0.00519362
-5.97399e-10
0.00519362
-1.16455e-09
0.00519362
-1.12329e-09
0.00519362
-1.46074e-09
0.00519362
-5.15113e-10
0.00519362
-1.38132e-09
0.00519362
-1.29695e-09
0.00519362
-1.07911e-09
0.00519362
-4.1015e-10
0.00519362
1.33417e-10
0.00519362
5.30988e-10
0.00519362
2.94821e-10
0.00519362
5.04648e-10
0.00519362
1.11134e-10
0.00519362
5.51156e-10
0.00519362
6.15869e-10
0.00519362
1.62579e-09
0.00519362
2.22326e-09
0.00519362
4.17974e-09
0.00519362
6.99701e-09
0.00519362
1.10046e-08
0.00519362
1.60456e-08
0.00519362
2.3855e-08
0.00519361
3.3616e-08
0.00519361
4.72537e-08
0.00519361
6.60944e-08
0.0051936
9.20244e-08
0.0051936
1.27086e-07
0.00519359
1.76878e-07
0.00519357
2.42641e-07
0.00519354
3.4366e-07
0.0051935
4.75435e-07
0.0051934
7.53912e-07
0.00519323
1.23729e-06
0.00519279
3.56488e-06
0.00519194
1.02355e-05
0.00518908
3.70798e-05
7.50896e-05
0.00516897
0.0013004
0.00519495
0.000604558
0.00519442
0.00015098
0.00519532
7.54017e-06
0.00519523
-9.66936e-06
0.00519556
5.14739e-06
0.0051955
9.01096e-06
0.00519547
1.11538e-05
0.00519538
9.74982e-06
0.0051953
8.62908e-06
0.00519521
7.23571e-06
0.00519513
6.18115e-06
0.00519505
5.23514e-06
0.00519497
4.45994e-06
0.0051949
3.79249e-06
0.00519484
3.22648e-06
0.00519478
2.73474e-06
0.00519472
2.30812e-06
0.00519467
1.93611e-06
0.00519463
1.60991e-06
0.00519459
1.32925e-06
0.00519456
1.08752e-06
0.00519453
8.80569e-07
0.00519451
7.06848e-07
0.00519449
5.62485e-07
0.00519447
4.42733e-07
0.00519446
3.45745e-07
0.00519445
2.67567e-07
0.00519444
2.06291e-07
0.00519443
1.56959e-07
0.00519443
1.18733e-07
0.00519443
8.8487e-08
0.00519442
6.71264e-08
0.00519442
4.99911e-08
0.00519442
3.78134e-08
0.00519442
2.87157e-08
0.00519442
2.22334e-08
0.00519441
1.6574e-08
0.00519441
1.26143e-08
0.00519441
8.96062e-09
0.00519441
7.42512e-09
0.00519441
4.37918e-09
0.00519441
3.35489e-09
0.00519441
2.41065e-09
0.00519441
1.33883e-09
0.00519441
2.10138e-10
0.00519441
1.7934e-10
0.00519441
-4.99834e-10
0.00519441
1.10881e-10
0.00519441
5.62338e-10
0.00519441
1.61709e-09
0.00519441
1.22811e-09
0.00519441
2.01324e-09
0.00519441
1.78982e-09
0.00519441
1.27709e-09
0.00519441
7.06733e-10
0.00519441
7.57401e-10
0.00519441
4.39301e-11
0.00519441
-3.32565e-10
0.00519441
-7.26104e-10
0.00519441
-9.38091e-10
0.00519441
-1.46893e-09
0.00519441
-8.55841e-10
0.00519441
-1.21157e-09
0.00519441
-1.19127e-09
0.00519441
-1.61463e-09
0.00519441
-7.47356e-10
0.00519441
-1.40816e-09
0.00519441
-1.42616e-09
0.00519441
-1.09238e-09
0.00519441
-4.56892e-10
0.00519441
1.70136e-10
0.00519441
5.53239e-10
0.00519441
3.09486e-10
0.00519441
5.08385e-10
0.00519441
1.79683e-10
0.00519441
4.44391e-10
0.00519441
5.39888e-10
0.00519441
1.61424e-09
0.00519441
2.29216e-09
0.00519441
4.1985e-09
0.00519441
7.20828e-09
0.00519441
1.14445e-08
0.00519441
1.67e-08
0.00519441
2.46181e-08
0.00519441
3.48608e-08
0.00519441
4.87533e-08
0.0051944
6.80959e-08
0.0051944
9.47126e-08
0.0051944
1.30566e-07
0.00519439
1.82215e-07
0.00519439
2.5144e-07
0.00519437
3.60514e-07
0.00519433
5.09044e-07
0.00519426
8.29925e-07
0.00519412
1.37963e-06
0.00519379
3.89224e-06
0.00519323
1.07919e-05
0.00519153
3.87805e-05
7.80842e-05
0.00515491
0.00114549
0.00518952
0.000569954
0.00519262
0.000147872
0.00519355
6.61708e-06
0.00519333
-9.45542e-06
0.00519376
4.72014e-06
0.00519393
8.84115e-06
0.00519416
1.09218e-05
0.00519431
9.60113e-06
0.00519444
8.50321e-06
0.00519452
7.14623e-06
0.00519459
6.11353e-06
0.00519464
5.18769e-06
0.00519467
4.42519e-06
0.0051947
3.76766e-06
0.00519472
3.2106e-06
0.00519472
2.72582e-06
0.00519473
2.30416e-06
0.00519473
1.93653e-06
0.00519473
1.61287e-06
0.00519472
1.33302e-06
0.00519472
1.09268e-06
0.00519471
8.8643e-07
0.00519471
7.12216e-07
0.0051947
5.67307e-07
0.0051947
4.47448e-07
0.00519469
3.49974e-07
0.00519469
2.71205e-07
0.00519469
2.09346e-07
0.00519469
1.59643e-07
0.00519468
1.20952e-07
0.00519468
9.01989e-08
0.00519468
6.83996e-08
0.00519468
5.13938e-08
0.00519468
3.8918e-08
0.00519468
2.95727e-08
0.00519468
2.28343e-08
0.00519468
1.71497e-08
0.00519468
1.32319e-08
0.00519468
9.37138e-09
0.00519468
7.56218e-09
0.00519468
4.74604e-09
0.00519468
3.51031e-09
0.00519468
2.56816e-09
0.00519468
1.49424e-09
0.00519468
2.15437e-10
0.00519468
1.28918e-10
0.00519468
-3.95073e-10
0.00519468
1.01309e-10
0.00519468
6.10383e-10
0.00519468
1.77773e-09
0.00519468
1.39196e-09
0.00519468
1.9368e-09
0.00519468
1.88728e-09
0.00519468
1.43293e-09
0.00519468
7.70626e-10
0.00519468
6.76672e-10
0.00519468
9.76987e-11
0.00519468
-3.6834e-10
0.00519468
-7.77109e-10
0.00519468
-9.38451e-10
0.00519468
-1.59645e-09
0.00519468
-1.14042e-09
0.00519468
-1.3264e-09
0.00519468
-1.24093e-09
0.00519468
-1.7362e-09
0.00519468
-9.79557e-10
0.00519468
-1.46091e-09
0.00519468
-1.51637e-09
0.00519468
-1.08139e-09
0.00519468
-4.49051e-10
0.00519468
1.65736e-10
0.00519468
5.79464e-10
0.00519468
2.96201e-10
0.00519468
4.48892e-10
0.00519468
2.2626e-10
0.00519468
3.68415e-10
0.00519468
3.88981e-10
0.00519468
1.51672e-09
0.00519468
2.30417e-09
0.00519468
4.12848e-09
0.00519468
7.19711e-09
0.00519468
1.15904e-08
0.00519468
1.69353e-08
0.00519468
2.47862e-08
0.00519468
3.52063e-08
0.00519468
4.90631e-08
0.00519467
6.83754e-08
0.00519467
9.50594e-08
0.00519467
1.30796e-07
0.00519467
1.83003e-07
0.00519467
2.54018e-07
0.00519466
3.68216e-07
0.00519464
5.29171e-07
0.00519459
8.82111e-07
0.00519449
1.47937e-06
0.00519428
4.09886e-06
0.00519403
1.10421e-05
0.00519347
3.93404e-05
7.87459e-05
0.00514306
0.00100243
0.00518462
0.000528394
0.00519092
0.000141574
0.00519182
5.71829e-06
0.00519147
-9.10365e-06
0.00519196
4.2292e-06
0.00519233
8.47184e-06
0.00519279
1.04561e-05
0.00519315
9.23839e-06
0.00519347
8.18805e-06
0.00519372
6.89518e-06
0.00519393
5.90688e-06
0.00519409
5.02134e-06
0.00519423
4.2883e-06
0.00519434
3.65501e-06
0.00519443
3.119e-06
0.00519451
2.65243e-06
0.00519457
2.24505e-06
0.00519461
1.88995e-06
0.00519465
1.57672e-06
0.00519468
1.30427e-06
0.0051947
1.07048e-06
0.00519472
8.70073e-07
0.00519473
6.99785e-07
0.00519474
5.57742e-07
0.00519475
4.40567e-07
0.00519475
3.45175e-07
0.00519476
2.67744e-07
0.00519476
2.06905e-07
0.00519476
1.58011e-07
0.00519476
1.19959e-07
0.00519476
8.9576e-08
0.00519476
6.79247e-08
0.00519476
5.13302e-08
0.00519476
3.90129e-08
0.00519476
2.96836e-08
0.00519476
2.29595e-08
0.00519476
1.72603e-08
0.00519476
1.34779e-08
0.00519476
9.61009e-09
0.00519476
7.59407e-09
0.00519476
4.90916e-09
0.00519476
3.56809e-09
0.00519476
2.62817e-09
0.00519476
1.65484e-09
0.00519477
1.99804e-10
0.00519476
6.9273e-11
0.00519476
-2.61358e-10
0.00519476
1.91559e-10
0.00519476
5.95824e-10
0.00519476
1.88447e-09
0.00519476
1.57676e-09
0.00519476
1.88426e-09
0.00519476
1.86579e-09
0.00519476
1.53224e-09
0.00519476
8.76913e-10
0.00519476
6.58693e-10
0.00519476
1.11501e-10
0.00519476
-3.96856e-10
0.00519476
-8.7001e-10
0.00519476
-9.16209e-10
0.00519476
-1.67471e-09
0.00519476
-1.41111e-09
0.00519476
-1.49608e-09
0.00519476
-1.27109e-09
0.00519477
-1.81188e-09
0.00519476
-1.18579e-09
0.00519477
-1.52245e-09
0.00519477
-1.58024e-09
0.00519476
-1.08956e-09
0.00519476
-4.00806e-10
0.00519476
1.37228e-10
0.00519476
5.9876e-10
0.00519476
2.7609e-10
0.00519476
3.24169e-10
0.00519476
2.05024e-10
0.00519477
3.15575e-10
0.00519476
1.88819e-10
0.00519476
1.30835e-09
0.00519476
2.23086e-09
0.00519477
3.99589e-09
0.00519476
6.99757e-09
0.00519477
1.14456e-08
0.00519477
1.67592e-08
0.00519477
2.43875e-08
0.00519477
3.46839e-08
0.00519477
4.82203e-08
0.00519477
6.7006e-08
0.00519477
9.3164e-08
0.00519477
1.27933e-07
0.00519478
1.79357e-07
0.00519478
2.50412e-07
0.00519478
3.66508e-07
0.00519478
5.34679e-07
0.00519475
9.07349e-07
0.0051947
1.53093e-06
0.00519462
4.17632e-06
0.00519468
1.09859e-05
0.00519521
3.88068e-05
7.72431e-05
0.00513313
0.000869297
0.00518032
0.000481207
0.0051894
0.000132491
0.00519025
4.87089e-06
0.00518975
-8.60534e-06
0.00519027
3.70558e-06
0.00519081
7.92915e-06
0.00519149
9.78504e-06
0.00519204
8.68463e-06
0.00519252
7.70314e-06
0.00519292
6.49823e-06
0.00519325
5.57408e-06
0.00519353
4.74643e-06
0.00519376
4.05773e-06
0.00519395
3.46157e-06
0.00519411
2.95739e-06
0.00519425
2.51903e-06
0.00519436
2.13467e-06
0.00519445
1.79931e-06
0.00519452
1.50354e-06
0.00519458
1.24498e-06
0.00519463
1.02248e-06
0.00519467
8.32356e-07
0.0051947
6.70296e-07
0.00519472
5.34484e-07
0.00519474
4.22552e-07
0.00519475
3.31584e-07
0.00519476
2.5739e-07
0.00519477
1.99099e-07
0.00519478
1.52212e-07
0.00519478
1.15787e-07
0.00519479
8.661e-08
0.00519479
6.57106e-08
0.00519479
4.98399e-08
0.00519479
3.80908e-08
0.00519479
2.90467e-08
0.00519479
2.25925e-08
0.00519479
1.69435e-08
0.00519479
1.32814e-08
0.00519479
9.59103e-09
0.00519479
7.54472e-09
0.00519479
4.91091e-09
0.00519479
3.49647e-09
0.00519479
2.56269e-09
0.00519479
1.78867e-09
0.00519479
2.00149e-10
0.00519479
-1.41861e-11
0.00519479
-1.38491e-10
0.00519479
3.76474e-10
0.00519479
5.90322e-10
0.00519479
1.92742e-09
0.00519479
1.75543e-09
0.00519479
1.86765e-09
0.00519479
1.76131e-09
0.00519479
1.52994e-09
0.00519479
9.67596e-10
0.00519479
6.86866e-10
0.00519479
8.64273e-11
0.00519479
-4.39613e-10
0.00519479
-9.88361e-10
0.00519479
-9.0247e-10
0.00519479
-1.69972e-09
0.00519479
-1.63839e-09
0.00519479
-1.70187e-09
0.00519479
-1.28896e-09
0.00519479
-1.83278e-09
0.00519479
-1.35052e-09
0.00519479
-1.56843e-09
0.00519479
-1.60399e-09
0.00519479
-1.11786e-09
0.00519479
-3.31744e-10
0.00519479
1.01166e-10
0.00519479
5.82927e-10
0.00519479
2.40507e-10
0.00519479
1.48199e-10
0.00519479
9.47918e-11
0.00519479
2.74283e-10
0.00519479
-1.4046e-11
0.00519479
1.0019e-09
0.00519479
2.053e-09
0.00519479
3.79085e-09
0.00519479
6.62065e-09
0.0051948
1.10152e-08
0.0051948
1.61899e-08
0.0051948
2.34445e-08
0.0051948
3.33492e-08
0.0051948
4.62874e-08
0.0051948
6.40863e-08
0.00519481
8.91369e-08
0.00519481
1.22166e-07
0.00519482
1.71474e-07
0.00519483
2.40755e-07
0.00519484
3.5537e-07
0.00519485
5.24958e-07
0.00519485
9.03788e-07
0.00519485
1.53121e-06
0.00519491
4.12185e-06
0.00519526
1.06313e-05
0.00519682
3.72482e-05
7.37621e-05
0.00512485
0.000744446
0.00517659
0.000429473
0.00518808
0.000120995
0.00518887
4.08687e-06
0.00518822
-7.95573e-06
0.00518875
3.1736e-06
0.00518944
7.23791e-06
0.00519029
8.93565e-06
0.00519101
7.96253e-06
0.00519165
7.0679e-06
0.00519217
5.97116e-06
0.00519262
5.12828e-06
0.00519299
4.37374e-06
0.00519331
3.74246e-06
0.00519358
3.19488e-06
0.0051938
2.73209e-06
0.00519399
2.33057e-06
0.00519415
1.97732e-06
0.00519428
1.66826e-06
0.00519439
1.39593e-06
0.00519447
1.15727e-06
0.00519455
9.50749e-07
0.0051946
7.74658e-07
0.00519465
6.24682e-07
0.00519469
4.98449e-07
0.00519471
3.94152e-07
0.00519474
3.09683e-07
0.00519475
2.40528e-07
0.00519477
1.86199e-07
0.00519478
1.42461e-07
0.00519478
1.08582e-07
0.00519479
8.13693e-08
0.00519479
6.18204e-08
0.0051948
4.7005e-08
0.0051948
3.61924e-08
0.0051948
2.7671e-08
0.0051948
2.16949e-08
0.0051948
1.62418e-08
0.0051948
1.26956e-08
0.0051948
9.28058e-09
0.0051948
7.40197e-09
0.0051948
4.79783e-09
0.0051948
3.31309e-09
0.0051948
2.36366e-09
0.0051948
1.85398e-09
0.0051948
2.4075e-10
0.0051948
-8.03289e-11
0.0051948
-5.12358e-11
0.0051948
6.14462e-10
0.0051948
6.16235e-10
0.0051948
1.9087e-09
0.0051948
1.89177e-09
0.0051948
1.88413e-09
0.0051948
1.62647e-09
0.0051948
1.44943e-09
0.0051948
1.02205e-09
0.0051948
7.69179e-10
0.0051948
4.94521e-11
0.0051948
-5.01206e-10
0.0051948
-1.12032e-09
0.0051948
-9.19425e-10
0.0051948
-1.70164e-09
0.0051948
-1.8074e-09
0.0051948
-1.93306e-09
0.0051948
-1.31974e-09
0.0051948
-1.8141e-09
0.0051948
-1.48009e-09
0.0051948
-1.60634e-09
0.0051948
-1.5872e-09
0.0051948
-1.1665e-09
0.0051948
-2.76941e-10
0.0051948
6.23631e-11
0.0051948
5.28084e-10
0.0051948
1.91107e-10
0.0051948
-4.19793e-11
0.0051948
-1.00162e-10
0.0051948