/*--------------------------------*- C++ -*----------------------------------*\
| =========                 |                                                 |
| \\      /  F ield         | OpenFOAM: The Open Source CFD Toolbox           |
|  \\    /   O peration     | Version:  5.x                                   |
|   \\  /    A nd           | Web:      www.OpenFOAM.org                      |
|    \\/     M anipulation  |                                                 |
\*---------------------------------------------------------------------------*/
FoamFile
{
    version     2.0;
    format      ascii;
    class       volVectorField;
    location    "1";
    object      U;
}
// * * * * * * * * * * * * * * * * * * * * * * * * * * * * * * * * * * * * * //

dimensions      [0 1 -1 0 0 0 0];

internalField   nonuniform List<vector> 
4000
(
(0.537562 0.0563929 0)
(0.552214 0.00359484 0)
(0.517086 -0.00176415 0)
(0.522909 -0.00200078 0)
(0.521087 -0.0021304 0)
(0.522013 -0.00203722 0)
(0.521399 -0.00204423 0)
(0.521241 -0.00203432 0)
(0.520889 -0.00204381 0)
(0.520671 -0.00204755 0)
(0.520454 -0.00205309 0)
(0.520289 -0.00205678 0)
(0.520144 -0.00206025 0)
(0.520025 -0.00206285 0)
(0.519925 -0.00206499 0)
(0.519841 -0.00206675 0)
(0.519771 -0.00206824 0)
(0.519713 -0.00206949 0)
(0.519665 -0.00207053 0)
(0.519626 -0.00207141 0)
(0.519594 -0.00207212 0)
(0.519569 -0.00207273 0)
(0.519549 -0.00207322 0)
(0.519533 -0.00207363 0)
(0.51952 -0.00207396 0)
(0.51951 -0.00207422 0)
(0.519503 -0.00207442 0)
(0.519497 -0.00207458 0)
(0.519493 -0.00207471 0)
(0.51949 -0.00207481 0)
(0.519487 -0.00207488 0)
(0.519486 -0.00207494 0)
(0.519484 -0.00207497 0)
(0.519483 -0.00207501 0)
(0.519483 -0.00207503 0)
(0.519482 -0.00207505 0)
(0.519482 -0.00207506 0)
(0.519482 -0.00207507 0)
(0.519481 -0.00207507 0)
(0.519481 -0.00207508 0)
(0.519481 -0.00207508 0)
(0.519481 -0.00207509 0)
(0.519481 -0.00207508 0)
(0.519481 -0.0020751 0)
(0.519481 -0.00207509 0)
(0.519481 -0.00207509 0)
(0.519481 -0.00207509 0)
(0.519481 -0.0020751 0)
(0.519481 -0.00207509 0)
(0.519481 -0.00207509 0)
(0.519481 -0.00207509 0)
(0.519481 -0.0020751 0)
(0.519481 -0.00207509 0)
(0.519481 -0.00207509 0)
(0.519481 -0.00207508 0)
(0.519481 -0.0020751 0)
(0.519481 -0.00207509 0)
(0.519481 -0.00207509 0)
(0.519481 -0.00207509 0)
(0.519481 -0.0020751 0)
(0.519481 -0.00207509 0)
(0.519481 -0.00207509 0)
(0.519481 -0.00207509 0)
(0.519481 -0.0020751 0)
(0.519481 -0.00207509 0)
(0.519481 -0.00207509 0)
(0.519481 -0.00207509 0)
(0.519481 -0.0020751 0)
(0.519481 -0.00207509 0)
(0.519481 -0.00207509 0)
(0.519481 -0.00207509 0)
(0.519481 -0.00207509 0)
(0.519481 -0.00207509 0)
(0.519481 -0.0020751 0)
(0.519481 -0.00207509 0)
(0.519481 -0.00207509 0)
(0.519481 -0.00207509 0)
(0.519481 -0.00207509 0)
(0.519481 -0.00207509 0)
(0.519481 -0.00207509 0)
(0.519481 -0.00207508 0)
(0.519481 -0.00207507 0)
(0.519481 -0.00207507 0)
(0.51948 -0.00207505 0)
(0.51948 -0.00207503 0)
(0.519479 -0.00207501 0)
(0.519478 -0.00207497 0)
(0.519477 -0.00207492 0)
(0.519475 -0.00207485 0)
(0.519473 -0.00207475 0)
(0.519469 -0.00207463 0)
(0.519465 -0.00207448 0)
(0.519458 -0.00207434 0)
(0.519451 -0.00207433 0)
(0.519444 -0.00207462 0)
(0.519436 -0.00207527 0)
(0.519442 -0.00207437 0)
(0.51936 -0.00206116 0)
(0.519228 -0.00202115 0)
(0.518638 -0.00215157 0)
(0.864939 0.128442 0)
(0.911619 0.0160005 0)
(0.861991 0.000987775 0)
(0.871381 -6.87848e-05 0)
(0.867984 -0.000503149 0)
(0.869565 -0.000188032 0)
(0.868597 -0.000199332 0)
(0.86842 -0.000160955 0)
(0.867895 -0.00018999 0)
(0.867584 -0.000202355 0)
(0.867264 -0.000221572 0)
(0.867021 -0.000234405 0)
(0.866807 -0.000246638 0)
(0.866631 -0.000256282 0)
(0.866481 -0.000264333 0)
(0.866355 -0.00027089 0)
(0.86625 -0.000276481 0)
(0.866162 -0.000281195 0)
(0.86609 -0.000285236 0)
(0.86603 -0.000288692 0)
(0.865981 -0.000291569 0)
(0.865941 -0.000294007 0)
(0.86591 -0.000296015 0)
(0.865885 -0.000297703 0)
(0.865865 -0.000299036 0)
(0.865849 -0.00030013 0)
(0.865837 -0.000300979 0)
(0.865828 -0.000301675 0)
(0.865821 -0.000302194 0)
(0.865816 -0.000302628 0)
(0.865812 -0.000302916 0)
(0.865809 -0.000303175 0)
(0.865807 -0.000303344 0)
(0.865806 -0.000303497 0)
(0.865805 -0.000303568 0)
(0.865804 -0.000303653 0)
(0.865803 -0.000303688 0)
(0.865803 -0.000303737 0)
(0.865802 -0.000303759 0)
(0.865802 -0.000303797 0)
(0.865802 -0.000303802 0)
(0.865802 -0.00030381 0)
(0.865802 -0.000303799 0)
(0.865802 -0.000303852 0)
(0.865802 -0.000303837 0)
(0.865802 -0.00030383 0)
(0.865802 -0.000303832 0)
(0.865802 -0.000303864 0)
(0.865802 -0.000303841 0)
(0.865802 -0.000303836 0)
(0.865802 -0.000303824 0)
(0.865802 -0.000303858 0)
(0.865802 -0.000303834 0)
(0.865802 -0.000303826 0)
(0.865802 -0.000303814 0)
(0.865802 -0.00030386 0)
(0.865802 -0.000303854 0)
(0.865802 -0.000303827 0)
(0.865802 -0.000303829 0)
(0.865802 -0.000303875 0)
(0.865802 -0.000303848 0)
(0.865802 -0.000303832 0)
(0.865802 -0.00030385 0)
(0.865802 -0.000303879 0)
(0.865802 -0.000303836 0)
(0.865802 -0.000303832 0)
(0.865802 -0.000303851 0)
(0.865802 -0.00030387 0)
(0.865802 -0.000303843 0)
(0.865802 -0.000303848 0)
(0.865802 -0.000303843 0)
(0.865802 -0.000303849 0)
(0.865802 -0.000303843 0)
(0.865802 -0.000303853 0)
(0.865802 -0.000303839 0)
(0.865802 -0.00030383 0)
(0.865802 -0.000303839 0)
(0.865802 -0.000303832 0)
(0.865802 -0.000303828 0)
(0.865801 -0.000303822 0)
(0.865801 -0.000303788 0)
(0.865801 -0.000303777 0)
(0.865801 -0.000303755 0)
(0.8658 -0.000303702 0)
(0.8658 -0.000303635 0)
(0.865799 -0.000303546 0)
(0.865797 -0.000303398 0)
(0.865796 -0.000303234 0)
(0.865793 -0.000302975 0)
(0.865789 -0.000302615 0)
(0.865784 -0.000302155 0)
(0.865777 -0.000301602 0)
(0.865767 -0.000300978 0)
(0.865755 -0.000300638 0)
(0.865742 -0.000300853 0)
(0.865724 -0.000301434 0)
(0.865718 -0.000293317 0)
(0.865546 -0.000239508 0)
(0.865252 -7.33535e-05 0)
(0.863185 -0.000219099 0)
(0.960352 0.135881 0)
(1.02539 0.0244284 0)
(0.976352 0.00334604 0)
(0.987444 0.000828601 0)
(0.983126 0.000106303 0)
(0.985025 0.000612109 0)
(0.983944 0.000618178 0)
(0.983842 0.000683126 0)
(0.983308 0.000636402 0)
(0.983018 0.000613439 0)
(0.982701 0.000579643 0)
(0.982465 0.000556348 0)
(0.982253 0.000534565 0)
(0.98208 0.000517186 0)
(0.981931 0.000502482 0)
(0.981807 0.000490408 0)
(0.981701 0.000480033 0)
(0.981613 0.000471203 0)
(0.98154 0.000463658 0)
(0.981479 0.000457159 0)
(0.981429 0.00045169 0)
(0.981389 0.000447046 0)
(0.981356 0.000443222 0)
(0.98133 0.000440004 0)
(0.981309 0.000437414 0)
(0.981293 0.0004353 0)
(0.98128 0.000433646 0)
(0.981271 0.000432282 0)
(0.981263 0.000431248 0)
(0.981258 0.00043039 0)
(0.981253 0.0004298 0)
(0.98125 0.000429312 0)
(0.981248 0.00042898 0)
(0.981246 0.000428673 0)
(0.981245 0.000428508 0)
(0.981244 0.000428339 0)
(0.981243 0.000428268 0)
(0.981243 0.000428179 0)
(0.981243 0.000428137 0)
(0.981242 0.000428066 0)
(0.981242 0.000428043 0)
(0.981242 0.000427999 0)
(0.981242 0.000428032 0)
(0.981242 0.000427964 0)
(0.981242 0.000427968 0)
(0.981242 0.000427966 0)
(0.981242 0.000427965 0)
(0.981242 0.000427921 0)
(0.981242 0.000427958 0)
(0.981242 0.000427961 0)
(0.981242 0.000427987 0)
(0.981242 0.00042795 0)
(0.981242 0.000427976 0)
(0.981242 0.00042797 0)
(0.981242 0.000427994 0)
(0.981242 0.000427952 0)
(0.981242 0.000427949 0)
(0.981242 0.00042796 0)
(0.981242 0.000427977 0)
(0.981242 0.000427921 0)
(0.981242 0.000427938 0)
(0.981242 0.000427953 0)
(0.981242 0.000427955 0)
(0.981242 0.00042791 0)
(0.981242 0.000427946 0)
(0.981242 0.00042795 0)
(0.981242 0.000427949 0)
(0.981242 0.000427917 0)
(0.981242 0.000427947 0)
(0.981242 0.000427934 0)
(0.981242 0.000427946 0)
(0.981242 0.000427947 0)
(0.981242 0.000427965 0)
(0.981242 0.000427947 0)
(0.981242 0.000427958 0)
(0.981242 0.000427964 0)
(0.981242 0.000427971 0)
(0.981242 0.00042797 0)
(0.981242 0.000427991 0)
(0.981242 0.000427993 0)
(0.981241 0.000428043 0)
(0.981241 0.000428079 0)
(0.981241 0.000428138 0)
(0.98124 0.000428228 0)
(0.98124 0.000428366 0)
(0.981239 0.000428534 0)
(0.981237 0.00042881 0)
(0.981235 0.000429147 0)
(0.981233 0.000429643 0)
(0.981229 0.00043032 0)
(0.981223 0.000431218 0)
(0.981216 0.000432311 0)
(0.981206 0.00043363 0)
(0.981193 0.000434599 0)
(0.981179 0.000435256 0)
(0.981152 0.000436381 0)
(0.981132 0.000458808 0)
(0.980909 0.000569136 0)
(0.980542 0.000943254 0)
(0.977594 0.00117816 0)
(0.984998 0.123258 0)
(1.05955 0.0286552 0)
(1.01378 0.00469541 0)
(1.02595 0.000705424 0)
(1.02103 -0.000181297 0)
(1.02314 0.000447735 0)
(1.02202 0.000486705 0)
(1.02202 0.000570595 0)
(1.02153 0.000511104 0)
(1.02129 0.000477668 0)
(1.02101 0.000430983 0)
(1.02081 0.000397662 0)
(1.02063 0.000366807 0)
(1.02048 0.000341839 0)
(1.02034 0.000320382 0)
(1.02023 0.000303347 0)
(1.02014 0.000288693 0)
(1.02006 0.00027615 0)
(1.02 0.000265407 0)
(1.01994 0.000256131 0)
(1.0199 0.000248257 0)
(1.01986 0.000241538 0)
(1.01983 0.00023597 0)
(1.0198 0.000231286 0)
(1.01979 0.000227451 0)
(1.01977 0.00022433 0)
(1.01976 0.000221883 0)
(1.01975 0.000219882 0)
(1.01974 0.000218354 0)
(1.01974 0.000217095 0)
(1.01973 0.000216196 0)
(1.01973 0.000215481 0)
(1.01973 0.000214977 0)
(1.01973 0.000214529 0)
(1.01973 0.000214281 0)
(1.01972 0.000214043 0)
(1.01972 0.000213916 0)
(1.01972 0.000213781 0)
(1.01972 0.000213711 0)
(1.01972 0.000213621 0)
(1.01972 0.000213584 0)
(1.01972 0.000213503 0)
(1.01972 0.000213537 0)
(1.01972 0.000213466 0)
(1.01972 0.000213456 0)
(1.01972 0.000213445 0)
(1.01972 0.000213449 0)
(1.01972 0.000213404 0)
(1.01972 0.000213438 0)
(1.01972 0.000213439 0)
(1.01972 0.000213483 0)
(1.01972 0.000213452 0)
(1.01972 0.000213475 0)
(1.01972 0.000213458 0)
(1.01972 0.000213487 0)
(1.01972 0.000213452 0)
(1.01972 0.000213439 0)
(1.01972 0.000213433 0)
(1.01972 0.000213461 0)
(1.01972 0.000213403 0)
(1.01972 0.000213408 0)
(1.01972 0.000213421 0)
(1.01972 0.000213436 0)
(1.01972 0.000213388 0)
(1.01972 0.000213418 0)
(1.01972 0.000213422 0)
(1.01972 0.00021343 0)
(1.01972 0.000213389 0)
(1.01972 0.000213422 0)
(1.01972 0.000213411 0)
(1.01972 0.000213425 0)
(1.01972 0.00021343 0)
(1.01972 0.000213452 0)
(1.01972 0.000213435 0)
(1.01972 0.000213443 0)
(1.01972 0.000213444 0)
(1.01972 0.000213461 0)
(1.01972 0.000213456 0)
(1.01972 0.00021349 0)
(1.01972 0.000213496 0)
(1.01972 0.00021356 0)
(1.01972 0.00021362 0)
(1.01972 0.000213714 0)
(1.01972 0.000213848 0)
(1.01972 0.000214055 0)
(1.01972 0.000214303 0)
(1.01972 0.000214696 0)
(1.01972 0.0002152 0)
(1.01971 0.00021592 0)
(1.01971 0.000216905 0)
(1.0197 0.000218224 0)
(1.0197 0.000219856 0)
(1.01969 0.000221938 0)
(1.01968 0.00022377 0)
(1.01966 0.000226162 0)
(1.01963 0.000230547 0)
(1.0196 0.000271546 0)
(1.01935 0.000444185 0)
(1.01899 0.00104985 0)
(1.01589 0.00176947 0)
(0.988593 0.109926 0)
(1.068 0.0309627 0)
(1.02562 0.00570172 0)
(1.03854 0.000552329 0)
(1.03321 -0.000402968 0)
(1.03549 0.000302745 0)
(1.03436 0.000376205 0)
(1.03447 0.000472017 0)
(1.03403 0.00040417 0)
(1.03386 0.000362155 0)
(1.03362 0.000305729 0)
(1.03346 0.000264651 0)
(1.03331 0.000227035 0)
(1.03319 0.000196472 0)
(1.03308 0.000170189 0)
(1.03299 0.000149071 0)
(1.03291 0.000130862 0)
(1.03284 0.000115162 0)
(1.03279 0.000101662 0)
(1.03274 8.99639e-05 0)
(1.0327 7.99421e-05 0)
(1.03267 7.12865e-05 0)
(1.03264 6.40197e-05 0)
(1.03262 5.78463e-05 0)
(1.03261 5.26494e-05 0)
(1.03259 4.8485e-05 0)
(1.03258 4.53377e-05 0)
(1.03257 4.27771e-05 0)
(1.03257 4.0811e-05 0)
(1.03256 3.91906e-05 0)
(1.03256 3.80059e-05 0)
(1.03256 3.70759e-05 0)
(1.03255 3.64269e-05 0)
(1.03255 3.58553e-05 0)
(1.03255 3.55247e-05 0)
(1.03255 3.52156e-05 0)
(1.03255 3.50344e-05 0)
(1.03255 3.48526e-05 0)
(1.03255 3.47662e-05 0)
(1.03255 3.46645e-05 0)
(1.03255 3.46098e-05 0)
(1.03255 3.44847e-05 0)
(1.03255 3.45204e-05 0)
(1.03255 3.44542e-05 0)
(1.03255 3.44296e-05 0)
(1.03255 3.44089e-05 0)
(1.03255 3.44178e-05 0)
(1.03255 3.43651e-05 0)
(1.03255 3.44015e-05 0)
(1.03255 3.44012e-05 0)
(1.03255 3.44572e-05 0)
(1.03255 3.44323e-05 0)
(1.03255 3.44605e-05 0)
(1.03255 3.44287e-05 0)
(1.03255 3.44545e-05 0)
(1.03255 3.44315e-05 0)
(1.03255 3.44197e-05 0)
(1.03255 3.4389e-05 0)
(1.03255 3.44201e-05 0)
(1.03255 3.43716e-05 0)
(1.03255 3.43677e-05 0)
(1.03255 3.43717e-05 0)
(1.03255 3.43989e-05 0)
(1.03255 3.435e-05 0)
(1.03255 3.43724e-05 0)
(1.03255 3.43731e-05 0)
(1.03255 3.4395e-05 0)
(1.03255 3.43452e-05 0)
(1.03255 3.4378e-05 0)
(1.03255 3.43688e-05 0)
(1.03255 3.4388e-05 0)
(1.03255 3.43973e-05 0)
(1.03255 3.44217e-05 0)
(1.03255 3.44048e-05 0)
(1.03255 3.4413e-05 0)
(1.03255 3.44086e-05 0)
(1.03255 3.44335e-05 0)
(1.03255 3.44241e-05 0)
(1.03255 3.44665e-05 0)
(1.03255 3.44788e-05 0)
(1.03255 3.45551e-05 0)
(1.03255 3.46373e-05 0)
(1.03255 3.4765e-05 0)
(1.03255 3.4935e-05 0)
(1.03255 3.52018e-05 0)
(1.03255 3.5523e-05 0)
(1.03254 3.60172e-05 0)
(1.03254 3.66644e-05 0)
(1.03254 3.75754e-05 0)
(1.03254 3.88184e-05 0)
(1.03253 4.05034e-05 0)
(1.03253 4.26165e-05 0)
(1.03252 4.54555e-05 0)
(1.03251 4.83127e-05 0)
(1.03249 5.33045e-05 0)
(1.03246 6.23734e-05 0)
(1.03242 0.000123601 0)
(1.03218 0.000349307 0)
(1.03186 0.00116843 0)
(1.02902 0.00229725 0)
(0.986407 0.098239 0)
(1.06827 0.0321883 0)
(1.02899 0.00652738 0)
(1.04247 0.000506775 0)
(1.03684 -0.000468203 0)
(1.03926 0.000281931 0)
(1.03813 0.000387444 0)
(1.03834 0.000489695 0)
(1.03796 0.000417583 0)
(1.03785 0.000369663 0)
(1.03767 0.00030728 0)
(1.03755 0.000261521 0)
(1.03743 0.000220243 0)
(1.03733 0.000186949 0)
(1.03725 0.000158343 0)
(1.03718 0.000134149 0)
(1.03712 0.000113234 0)
(1.03707 9.51334e-05 0)
(1.03702 7.95115e-05 0)
(1.03698 6.59578e-05 0)
(1.03695 5.43214e-05 0)
(1.03693 4.42366e-05 0)
(1.0369 3.57313e-05 0)
(1.03689 2.85298e-05 0)
(1.03687 2.24565e-05 0)
(1.03686 1.75485e-05 0)
(1.03685 1.38052e-05 0)
(1.03685 1.07646e-05 0)
(1.03684 8.40974e-06 0)
(1.03684 6.47371e-06 0)
(1.03683 5.03526e-06 0)
(1.03683 3.90017e-06 0)
(1.03683 3.09484e-06 0)
(1.03683 2.38306e-06 0)
(1.03683 1.94148e-06 0)
(1.03683 1.57742e-06 0)
(1.03683 1.35382e-06 0)
(1.03683 1.13584e-06 0)
(1.03682 1.02045e-06 0)
(1.03682 8.9886e-07 0)
(1.03682 8.39321e-07 0)
(1.03682 6.86069e-07 0)
(1.03682 7.0906e-07 0)
(1.03682 6.50426e-07 0)
(1.03682 6.17147e-07 0)
(1.03682 5.81664e-07 0)
(1.03682 5.92028e-07 0)
(1.03682 5.41461e-07 0)
(1.03682 5.79648e-07 0)
(1.03682 5.74918e-07 0)
(1.03682 6.3577e-07 0)
(1.03682 6.18558e-07 0)
(1.03682 6.55165e-07 0)
(1.03682 6.13647e-07 0)
(1.03682 6.28783e-07 0)
(1.03682 6.13988e-07 0)
(1.03682 6.08593e-07 0)
(1.03682 5.61212e-07 0)
(1.03682 5.85638e-07 0)
(1.03682 5.47013e-07 0)
(1.03682 5.39364e-07 0)
(1.03682 5.33443e-07 0)
(1.03682 5.68532e-07 0)
(1.03682 5.21898e-07 0)
(1.03682 5.37676e-07 0)
(1.03682 5.33556e-07 0)
(1.03682 5.67704e-07 0)
(1.03682 5.13185e-07 0)
(1.03682 5.40274e-07 0)
(1.03682 5.37042e-07 0)
(1.03682 5.62549e-07 0)
(1.03682 5.74803e-07 0)
(1.03682 5.99535e-07 0)
(1.03682 5.84435e-07 0)
(1.03682 5.93416e-07 0)
(1.03682 5.82211e-07 0)
(1.03682 6.11765e-07 0)
(1.03682 6.02349e-07 0)
(1.03682 6.48705e-07 0)
(1.03682 6.68595e-07 0)
(1.03682 7.55898e-07 0)
(1.03682 8.56777e-07 0)
(1.03682 1.0108e-06 0)
(1.03682 1.21219e-06 0)
(1.03682 1.52982e-06 0)
(1.03682 1.92122e-06 0)
(1.03682 2.52662e-06 0)
(1.03682 3.32153e-06 0)
(1.03682 4.41134e-06 0)
(1.03682 5.88114e-06 0)
(1.03681 7.88712e-06 0)
(1.03681 1.04314e-05 0)
(1.0368 1.40025e-05 0)
(1.03679 1.79677e-05 0)
(1.03678 2.5631e-05 0)
(1.03674 3.93971e-05 0)
(1.0367 0.000119346 0)
(1.03647 0.00038398 0)
(1.03621 0.00139881 0)
(1.03382 0.00284707 0)
(0.983101 0.0876274 0)
(1.06614 0.0325002 0)
(1.02961 0.00711906 0)
(1.04351 0.000482835 0)
(1.03766 -0.000481818 0)
(1.04019 0.0002868 0)
(1.03907 0.0004228 0)
(1.03937 0.000529344 0)
(1.03905 0.000455185 0)
(1.039 0.000402793 0)
(1.03886 0.000335895 0)
(1.03878 0.00028629 0)
(1.0387 0.000241731 0)
(1.03863 0.000205686 0)
(1.03857 0.000174712 0)
(1.03852 0.000148341 0)
(1.03847 0.000125543 0)
(1.03843 0.000105797 0)
(1.0384 8.87016e-05 0)
(1.03837 7.38696e-05 0)
(1.03835 6.11676e-05 0)
(1.03833 5.01868e-05 0)
(1.03831 4.09392e-05 0)
(1.0383 3.32104e-05 0)
(1.03829 2.67846e-05 0)
(1.03828 2.14595e-05 0)
(1.03827 1.7232e-05 0)
(1.03827 1.3801e-05 0)
(1.03826 1.11258e-05 0)
(1.03826 8.9329e-06 0)
(1.03826 7.27316e-06 0)
(1.03825 5.94892e-06 0)
(1.03825 4.98933e-06 0)
(1.03825 4.14522e-06 0)
(1.03825 3.61685e-06 0)
(1.03825 3.21449e-06 0)
(1.03825 2.95496e-06 0)
(1.03825 2.70359e-06 0)
(1.03825 2.55582e-06 0)
(1.03825 2.41673e-06 0)
(1.03825 2.35559e-06 0)
(1.03825 2.18848e-06 0)
(1.03825 2.19229e-06 0)
(1.03825 2.13924e-06 0)
(1.03825 2.09804e-06 0)
(1.03825 2.05253e-06 0)
(1.03825 2.06194e-06 0)
(1.03825 2.01428e-06 0)
(1.03825 2.05392e-06 0)
(1.03825 2.05233e-06 0)
(1.03825 2.11085e-06 0)
(1.03825 2.09577e-06 0)
(1.03825 2.14064e-06 0)
(1.03825 2.09975e-06 0)
(1.03825 2.09977e-06 0)
(1.03825 2.08591e-06 0)
(1.03825 2.08823e-06 0)
(1.03825 2.03484e-06 0)
(1.03825 2.04647e-06 0)
(1.03825 2.01636e-06 0)
(1.03825 2.00801e-06 0)
(1.03825 1.99429e-06 0)
(1.03825 2.03212e-06 0)
(1.03825 1.99056e-06 0)
(1.03825 2.00055e-06 0)
(1.03825 1.99165e-06 0)
(1.03825 2.03429e-06 0)
(1.03825 1.98017e-06 0)
(1.03825 1.99844e-06 0)
(1.03825 2.00119e-06 0)
(1.03825 2.0318e-06 0)
(1.03825 2.04955e-06 0)
(1.03825 2.07289e-06 0)
(1.03825 2.05883e-06 0)
(1.03825 2.06884e-06 0)
(1.03825 2.05249e-06 0)
(1.03825 2.08205e-06 0)
(1.03825 2.07659e-06 0)
(1.03825 2.12515e-06 0)
(1.03825 2.15044e-06 0)
(1.03825 2.24503e-06 0)
(1.03825 2.36329e-06 0)
(1.03825 2.53896e-06 0)
(1.03825 2.76476e-06 0)
(1.03825 3.12069e-06 0)
(1.03825 3.568e-06 0)
(1.03825 4.2546e-06 0)
(1.03825 5.18911e-06 0)
(1.03824 6.43842e-06 0)
(1.03824 8.09854e-06 0)
(1.03824 1.03766e-05 0)
(1.03824 1.32971e-05 0)
(1.03823 1.75506e-05 0)
(1.03822 2.2632e-05 0)
(1.03821 3.27663e-05 0)
(1.03818 5.07445e-05 0)
(1.03814 0.000147085 0)
(1.03794 0.000446215 0)
(1.03774 0.00162597 0)
(1.03587 0.00331318 0)
(0.980006 0.0779171 0)
(1.06352 0.0320458 0)
(1.02938 0.00746334 0)
(1.04358 0.000446822 0)
(1.03758 -0.000486776 0)
(1.0402 0.000281814 0)
(1.03908 0.00044488 0)
(1.03947 0.000553443 0)
(1.0392 0.000479422 0)
(1.03921 0.000424239 0)
(1.03911 0.000354706 0)
(1.03907 0.000302635 0)
(1.03902 0.00025589 0)
(1.03898 0.000217868 0)
(1.03894 0.000185179 0)
(1.03891 0.000157425 0)
(1.03888 0.000133398 0)
(1.03885 0.000112576 0)
(1.03883 9.44821e-05 0)
(1.03881 7.87303e-05 0)
(1.03879 6.52287e-05 0)
(1.03878 5.35661e-05 0)
(1.03877 4.36841e-05 0)
(1.03876 3.54322e-05 0)
(1.03875 2.85833e-05 0)
(1.03875 2.28812e-05 0)
(1.03874 1.82985e-05 0)
(1.03874 1.4591e-05 0)
(1.03873 1.16903e-05 0)
(1.03873 9.32738e-06 0)
(1.03873 7.51658e-06 0)
(1.03873 6.07154e-06 0)
(1.03873 5.02793e-06 0)
(1.03873 4.13628e-06 0)
(1.03873 3.55621e-06 0)
(1.03873 3.10275e-06 0)
(1.03873 2.80287e-06 0)
(1.03872 2.53038e-06 0)
(1.03872 2.35457e-06 0)
(1.03872 2.19585e-06 0)
(1.03872 2.13056e-06 0)
(1.03872 1.96357e-06 0)
(1.03872 1.94388e-06 0)
(1.03872 1.89364e-06 0)
(1.03872 1.84724e-06 0)
(1.03872 1.79693e-06 0)
(1.03872 1.80135e-06 0)
(1.03872 1.75787e-06 0)
(1.03872 1.79659e-06 0)
(1.03872 1.80391e-06 0)
(1.03872 1.85812e-06 0)
(1.03872 1.842e-06 0)
(1.03872 1.88952e-06 0)
(1.03872 1.85758e-06 0)
(1.03872 1.84342e-06 0)
(1.03872 1.82552e-06 0)
(1.03872 1.83151e-06 0)
(1.03872 1.78201e-06 0)
(1.03872 1.77974e-06 0)
(1.03872 1.75566e-06 0)
(1.03872 1.74637e-06 0)
(1.03872 1.72732e-06 0)
(1.03872 1.76449e-06 0)
(1.03872 1.73109e-06 0)
(1.03872 1.73568e-06 0)
(1.03872 1.72166e-06 0)
(1.03872 1.76807e-06 0)
(1.03872 1.7201e-06 0)
(1.03872 1.72889e-06 0)
(1.03872 1.73742e-06 0)
(1.03872 1.77049e-06 0)
(1.03872 1.79447e-06 0)
(1.03872 1.8158e-06 0)
(1.03872 1.80289e-06 0)
(1.03872 1.81303e-06 0)
(1.03872 1.79439e-06 0)
(1.03872 1.81964e-06 0)
(1.03872 1.81983e-06 0)
(1.03872 1.87001e-06 0)
(1.03872 1.89901e-06 0)
(1.03872 1.99643e-06 0)
(1.03872 2.13099e-06 0)
(1.03872 2.32546e-06 0)
(1.03872 2.5713e-06 0)
(1.03872 2.95388e-06 0)
(1.03872 3.46386e-06 0)
(1.03872 4.1823e-06 0)
(1.03872 5.17432e-06 0)
(1.03872 6.50243e-06 0)
(1.03872 8.26827e-06 0)
(1.03872 1.07303e-05 0)
(1.03872 1.39384e-05 0)
(1.03871 1.87735e-05 0)
(1.0387 2.4911e-05 0)
(1.03869 3.76441e-05 0)
(1.03867 5.99105e-05 0)
(1.03863 0.000170647 0)
(1.03847 0.000496104 0)
(1.03834 0.00179876 0)
(1.03701 0.00365081 0)
(0.977413 0.0690732 0)
(1.06099 0.0309865 0)
(1.02893 0.00758537 0)
(1.04336 0.000402033 0)
(1.03723 -0.000486702 0)
(1.03991 0.000267421 0)
(1.0388 0.00045258 0)
(1.03927 0.000560908 0)
(1.03904 0.000488964 0)
(1.03911 0.000432718 0)
(1.03905 0.000362528 0)
(1.03905 0.000309557 0)
(1.03902 0.000262028 0)
(1.03901 0.00022317 0)
(1.03899 0.000189732 0)
(1.03898 0.000161376 0)
(1.03896 0.000136772 0)
(1.03895 0.000115433 0)
(1.03894 9.68421e-05 0)
(1.03893 8.05814e-05 0)
(1.03892 6.66079e-05 0)
(1.03892 5.4557e-05 0)
(1.03891 4.42752e-05 0)
(1.0389 3.56588e-05 0)
(1.0389 2.84982e-05 0)
(1.0389 2.25526e-05 0)
(1.03889 1.77506e-05 0)
(1.03889 1.38762e-05 0)
(1.03889 1.0841e-05 0)
(1.03889 8.38823e-06 0)
(1.03889 6.49526e-06 0)
(1.03889 4.99411e-06 0)
(1.03888 3.92676e-06 0)
(1.03888 3.05223e-06 0)
(1.03888 2.4373e-06 0)
(1.03888 1.95945e-06 0)
(1.03888 1.63063e-06 0)
(1.03888 1.34533e-06 0)
(1.03888 1.14675e-06 0)
(1.03888 9.65314e-07 0)
(1.03888 8.85974e-07 0)
(1.03888 7.2648e-07 0)
(1.03888 6.85391e-07 0)
(1.03888 6.37109e-07 0)
(1.03888 5.85703e-07 0)
(1.03888 5.31551e-07 0)
(1.03888 5.31552e-07 0)
(1.03888 4.9381e-07 0)
(1.03888 5.27476e-07 0)
(1.03888 5.45066e-07 0)
(1.03888 5.98574e-07 0)
(1.03888 5.8028e-07 0)
(1.03888 6.22815e-07 0)
(1.03888 6.04226e-07 0)
(1.03888 5.82132e-07 0)
(1.03888 5.57586e-07 0)
(1.03888 5.61208e-07 0)
(1.03888 5.20274e-07 0)
(1.03888 5.06637e-07 0)
(1.03888 4.85832e-07 0)
(1.03888 4.75828e-07 0)
(1.03888 4.51742e-07 0)
(1.03888 4.84814e-07 0)
(1.03888 4.61324e-07 0)
(1.03888 4.63302e-07 0)
(1.03888 4.44829e-07 0)
(1.03888 4.89707e-07 0)
(1.03888 4.50961e-07 0)
(1.03888 4.52882e-07 0)
(1.03888 4.6718e-07 0)
(1.03888 4.99971e-07 0)
(1.03888 5.29161e-07 0)
(1.03888 5.48979e-07 0)
(1.03888 5.36481e-07 0)
(1.03888 5.46297e-07 0)
(1.03888 5.28983e-07 0)
(1.03888 5.46771e-07 0)
(1.03888 5.50289e-07 0)
(1.03888 6.02973e-07 0)
(1.03888 6.3577e-07 0)
(1.03888 7.32654e-07 0)
(1.03888 8.83647e-07 0)
(1.03888 1.10057e-06 0)
(1.03888 1.36567e-06 0)
(1.03888 1.76495e-06 0)
(1.03888 2.30548e-06 0)
(1.03888 3.02413e-06 0)
(1.03888 4.00596e-06 0)
(1.03888 5.34499e-06 0)
(1.03888 7.14234e-06 0)
(1.03888 9.70467e-06 0)
(1.03888 1.31093e-05 0)
(1.03887 1.84012e-05 0)
(1.03887 2.54617e-05 0)
(1.03886 4.05562e-05 0)
(1.03884 6.65986e-05 0)
(1.03881 0.000188537 0)
(1.0387 0.000530372 0)
(1.03863 0.00191174 0)
(1.03784 0.00385995 0)
(0.975311 0.0609988 0)
(1.05872 0.0294494 0)
(1.02846 0.00751397 0)
(1.04305 0.000354954 0)
(1.03683 -0.000479891 0)
(1.03955 0.000247535 0)
(1.03845 0.000448839 0)
(1.03898 0.000554945 0)
(1.03881 0.000486593 0)
(1.03892 0.000430823 0)
(1.0389 0.000361713 0)
(1.03893 0.000309238 0)
(1.03893 0.000262181 0)
(1.03894 0.000223518 0)
(1.03894 0.000190205 0)
(1.03895 0.000161971 0)
(1.03895 0.000137422 0)
(1.03895 0.000116091 0)
(1.03895 9.74914e-05 0)
(1.03895 8.11517e-05 0)
(1.03895 6.7054e-05 0)
(1.03895 5.49269e-05 0)
(1.03894 4.45359e-05 0)
(1.03894 3.57837e-05 0)
(1.03894 2.8504e-05 0)
(1.03894 2.2475e-05 0)
(1.03894 1.7585e-05 0)
(1.03894 1.36375e-05 0)
(1.03894 1.05401e-05 0)
(1.03894 8.04844e-06 0)
(1.03894 6.11495e-06 0)
(1.03894 4.58192e-06 0)
(1.03894 3.49659e-06 0)
(1.03894 2.63846e-06 0)
(1.03894 2.01799e-06 0)
(1.03894 1.54984e-06 0)
(1.03894 1.21235e-06 0)
(1.03894 9.23161e-07 0)
(1.03894 7.19644e-07 0)
(1.03894 5.24923e-07 0)
(1.03894 4.33753e-07 0)
(1.03894 2.84732e-07 0)
(1.03894 2.28426e-07 0)
(1.03894 1.80349e-07 0)
(1.03894 1.2489e-07 0)
(1.03894 6.5102e-08 0)
(1.03894 6.30484e-08 0)
(1.03894 3.22409e-08 0)
(1.03894 5.96494e-08 0)
(1.03894 8.25721e-08 0)
(1.03894 1.40926e-07 0)
(1.03894 1.22088e-07 0)
(1.03894 1.54847e-07 0)
(1.03894 1.47331e-07 0)
(1.03894 1.23743e-07 0)
(1.03894 9.3451e-08 0)
(1.03894 9.09535e-08 0)
(1.03894 5.83206e-08 0)
(1.03894 3.66781e-08 0)
(1.03894 1.57698e-08 0)
(1.03894 6.85573e-09 0)
(1.03894 -2.31038e-08 0)
(1.03894 3.83158e-09 0)
(1.03894 -1.07581e-08 0)
(1.03894 -7.52296e-09 0)
(1.03894 -2.99562e-08 0)
(1.03894 1.06121e-08 0)
(1.03894 -1.83169e-08 0)
(1.03894 -1.93373e-08 0)
(1.03894 -8.35587e-10 0)
(1.03894 3.13969e-08 0)
(1.03894 6.29823e-08 0)
(1.03894 8.31294e-08 0)
(1.03894 7.00588e-08 0)
(1.03894 7.76041e-08 0)
(1.03894 6.50426e-08 0)
(1.03894 7.57446e-08 0)
(1.03894 7.84681e-08 0)
(1.03894 1.33959e-07 0)
(1.03894 1.722e-07 0)
(1.03894 2.66322e-07 0)
(1.03894 4.23959e-07 0)
(1.03894 6.5108e-07 0)
(1.03894 9.23983e-07 0)
(1.03894 1.3243e-06 0)
(1.03894 1.8485e-06 0)
(1.03893 2.54821e-06 0)
(1.03893 3.51831e-06 0)
(1.03893 4.85732e-06 0)
(1.03893 6.65659e-06 0)
(1.03893 9.26758e-06 0)
(1.03893 1.27963e-05 0)
(1.03893 1.8416e-05 0)
(1.03893 2.62137e-05 0)
(1.03892 4.32037e-05 0)
(1.03891 7.21451e-05 0)
(1.03889 0.000201454 0)
(1.03882 0.00055 0)
(1.03882 0.0019672 0)
(1.03856 0.00394884 0)
(0.973622 0.0535733 0)
(1.05673 0.0275284 0)
(1.02803 0.0072731 0)
(1.04273 0.000308686 0)
(1.03644 -0.000465955 0)
(1.03919 0.000224077 0)
(1.0381 0.000434931 0)
(1.03869 0.000537038 0)
(1.03855 0.000473415 0)
(1.03871 0.000419449 0)
(1.03872 0.000352906 0)
(1.03878 0.000302128 0)
(1.03881 0.000256618 0)
(1.03884 0.000219039 0)
(1.03886 0.000186605 0)
(1.03888 0.000159136 0)
(1.0389 0.000135229 0)
(1.03891 0.000114391 0)
(1.03892 9.6222e-05 0)
(1.03893 8.02132e-05 0)
(1.03893 6.63288e-05 0)
(1.03894 5.44046e-05 0)
(1.03894 4.41801e-05 0)
(1.03895 3.55186e-05 0)
(1.03895 2.83006e-05 0)
(1.03895 2.23375e-05 0)
(1.03895 1.74878e-05 0)
(1.03895 1.356e-05 0)
(1.03895 1.04744e-05 0)
(1.03895 7.99427e-06 0)
(1.03895 6.06503e-06 0)
(1.03895 4.52859e-06 0)
(1.03895 3.43664e-06 0)
(1.03895 2.59226e-06 0)
(1.03895 1.97147e-06 0)
(1.03895 1.50408e-06 0)
(1.03895 1.16535e-06 0)
(1.03895 8.78044e-07 0)
(1.03895 6.83596e-07 0)
(1.03895 4.89559e-07 0)
(1.03895 3.93166e-07 0)
(1.03895 2.5294e-07 0)
(1.03895 1.88207e-07 0)
(1.03895 1.40306e-07 0)
(1.03895 8.71258e-08 0)
(1.03895 1.91705e-08 0)
(1.03895 1.46366e-08 0)
(1.03895 -7.4586e-09 0)
(1.03895 1.6202e-08 0)
(1.03895 3.80915e-08 0)
(1.03895 1.02181e-07 0)
(1.03895 8.55018e-08 0)
(1.03895 1.06761e-07 0)
(1.03895 1.04244e-07 0)
(1.03895 8.42825e-08 0)
(1.03895 5.17588e-08 0)
(1.03895 4.32864e-08 0)
(1.03895 1.47526e-08 0)
(1.03895 -1.0623e-08 0)
(1.03895 -3.37315e-08 0)
(1.03895 -3.90599e-08 0)
(1.03895 -7.45386e-08 0)
(1.03895 -5.56017e-08 0)
(1.03895 -6.36513e-08 0)
(1.03895 -5.51943e-08 0)
(1.03895 -8.07594e-08 0)
(1.03895 -4.58769e-08 0)
(1.03895 -6.65531e-08 0)
(1.03895 -6.86612e-08 0)
(1.03895 -4.72159e-08 0)
(1.03895 -1.34978e-08 0)
(1.03895 1.67006e-08 0)
(1.03895 3.86292e-08 0)
(1.03895 2.37186e-08 0)
(1.03895 2.75854e-08 0)
(1.03895 2.0064e-08 0)
(1.03895 2.71281e-08 0)
(1.03895 2.46412e-08 0)
(1.03895 8.09124e-08 0)
(1.03895 1.25143e-07 0)
(1.03895 2.1596e-07 0)
(1.03895 3.68809e-07 0)
(1.03895 5.92041e-07 0)
(1.03895 8.60692e-07 0)
(1.03895 1.24986e-06 0)
(1.03895 1.76783e-06 0)
(1.03895 2.45472e-06 0)
(1.03895 3.41026e-06 0)
(1.03895 4.73722e-06 0)
(1.03895 6.50894e-06 0)
(1.03895 9.11375e-06 0)
(1.03896 1.26889e-05 0)
(1.03896 1.84879e-05 0)
(1.03896 2.67848e-05 0)
(1.03895 4.50893e-05 0)
(1.03895 7.59002e-05 0)
(1.03893 0.00020854 0)
(1.03892 0.000554682 0)
(1.03898 0.001967 0)
(1.03921 0.0039255 0)
(0.972268 0.0466893 0)
(1.055 0.0252964 0)
(1.02766 0.00688359 0)
(1.04244 0.000264674 0)
(1.03609 -0.00044476 0)
(1.03886 0.000198398 0)
(1.03777 0.000411826 0)
(1.03841 0.000508289 0)
(1.03831 0.000450227 0)
(1.03851 0.000399212 0)
(1.03855 0.000336516 0)
(1.03864 0.000288486 0)
(1.03869 0.000245461 0)
(1.03874 0.00020975 0)
(1.03878 0.000178871 0)
(1.03881 0.00015274 0)
(1.03884 0.000130005 0)
(1.03886 0.000110112 0)
(1.03888 9.27591e-05 0)
(1.0389 7.74541e-05 0)
(1.03891 6.41099e-05 0)
(1.03892 5.26384e-05 0)
(1.03893 4.28202e-05 0)
(1.03894 3.44672e-05 0)
(1.03894 2.74816e-05 0)
(1.03895 2.1719e-05 0)
(1.03895 1.70325e-05 0)
(1.03895 1.32199e-05 0)
(1.03895 1.02238e-05 0)
(1.03896 7.81437e-06 0)
(1.03896 5.94074e-06 0)
(1.03896 4.4426e-06 0)
(1.03896 3.37176e-06 0)
(1.03896 2.55424e-06 0)
(1.03896 1.95002e-06 0)
(1.03896 1.48872e-06 0)
(1.03896 1.15724e-06 0)
(1.03896 8.71883e-07 0)
(1.03896 6.84193e-07 0)
(1.03896 4.95245e-07 0)
(1.03896 3.94476e-07 0)
(1.03896 2.59587e-07 0)
(1.03896 1.89991e-07 0)
(1.03896 1.42763e-07 0)
(1.03896 9.85917e-08 0)
(1.03896 2.25731e-08 0)
(1.03896 1.36449e-08 0)
(1.03896 1.72715e-09 0)
(1.03896 2.65006e-08 0)
(1.03896 4.20233e-08 0)
(1.03896 1.08334e-07 0)
(1.03896 9.68087e-08 0)
(1.03896 1.07674e-07 0)
(1.03896 1.03749e-07 0)
(1.03896 8.90788e-08 0)
(1.03896 5.87532e-08 0)
(1.03896 4.66472e-08 0)
(1.03896 1.76314e-08 0)
(1.03896 -8.53624e-09 0)
(1.03896 -3.49685e-08 0)
(1.03896 -3.48272e-08 0)
(1.03896 -7.34396e-08 0)
(1.03896 -6.39513e-08 0)
(1.03896 -6.87039e-08 0)
(1.03896 -5.2221e-08 0)
(1.03896 -7.90413e-08 0)
(1.03896 -5.08908e-08 0)
(1.03896 -6.5313e-08 0)
(1.03896 -6.75748e-08 0)
(1.03896 -4.42814e-08 0)
(1.03896 -7.11558e-09 0)
(1.03896 1.84315e-08 0)
(1.03896 4.21043e-08 0)
(1.03896 2.55376e-08 0)
(1.03896 2.41681e-08 0)
(1.03896 1.99801e-08 0)
(1.03896 2.80913e-08 0)
(1.03896 1.78714e-08 0)
(1.03896 7.09207e-08 0)
(1.03896 1.20706e-07 0)
(1.03896 2.09296e-07 0)
(1.03896 3.55173e-07 0)
(1.03896 5.76608e-07 0)
(1.03896 8.39749e-07 0)
(1.03896 1.21346e-06 0)
(1.03896 1.72011e-06 0)
(1.03896 2.38555e-06 0)
(1.03896 3.30515e-06 0)
(1.03896 4.59245e-06 0)
(1.03896 6.29756e-06 0)
(1.03896 8.8305e-06 0)
(1.03896 1.2363e-05 0)
(1.03897 1.81753e-05 0)
(1.03897 2.66934e-05 0)
(1.03897 4.56555e-05 0)
(1.03897 7.7228e-05 0)
(1.03897 0.000209121 0)
(1.03901 0.000544257 0)
(1.03912 0.00191374 0)
(1.03982 0.00379853 0)
(0.971183 0.0402574 0)
(1.05353 0.0228125 0)
(1.02733 0.00636459 0)
(1.04218 0.000223698 0)
(1.03579 -0.000416059 0)
(1.03856 0.000171773 0)
(1.03748 0.000380691 0)